/*--------------------------------*- C++ -*----------------------------------*\
| =========                 |                                                 |
| \\      /  F ield         | OpenFOAM: The Open Source CFD Toolbox           |
|  \\    /   O peration     | Version:  5.x                                   |
|   \\  /    A nd           | Web:      www.OpenFOAM.org                      |
|    \\/     M anipulation  |                                                 |
\*---------------------------------------------------------------------------*/
FoamFile
{
    version     2.0;
    format      ascii;
    class       volScalarField;
    location    "85";
    object      gamma;
}
// * * * * * * * * * * * * * * * * * * * * * * * * * * * * * * * * * * * * * //

dimensions      [0 0 0 0 0 0 0];

internalField   nonuniform List<scalar> 
86400
(
0.0001273
0.0001544
0.0002153
0.0003418
0.0005888
0.0008955
0.001213
0.001697
0.002726
0.004449
0.007657
0.01219
0.01897
0.02484
0.03202
0.03626
0.03975
0.03582
0.02829
0.02081
0.01543
0.01237
0.01158
0.01154
0.01173
0.01361
0.01339
0.01301
0.01197
0.01135
0.01085
0.0113
0.01193
0.01263
0.01349
0.01532
0.01546
0.01459
0.01231
0.01143
0.01066
0.01129
0.01109
0.009928
0.009501
0.009892
0.0113
0.01231
0.01317
0.01261
0.01252
0.01276
0.01316
0.01369
0.014
0.01496
0.01603
0.01639
0.01604
0.01546
0.01397
0.01366
0.01299
0.01318
0.0147
0.01711
0.01821
0.01869
0.01674
0.01581
0.01704
0.01979
0.02095
0.0199
0.01892
0.01824
0.0175
0.01906
0.0214
0.0222
0.02283
0.02222
0.02166
0.02306
0.02658
0.02854
0.02999
0.02962
0.02999
0.03003
0.02828
0.02982
0.03269
0.03896
0.04261
0.04417
0.03995
0.03773
0.03646
0.03557
0.03482
0.03144
0.02769
0.0228
0.01866
0.01837
0.02219
0.0282
0.02801
0.02354
0.01675
0.01275
0.01157
0.01165
0.01142
0.01107
0.0108
0.01061
0.01067
0.01079
0.01086
0.01079
0.01058
0.0102
0.009978
0.009928
0.009745
0.009515
0.009239
0.008854
0.008269
0.008727
0.009474
0.01052
0.0116
0.01283
0.01373
0.01474
0.01071
0.00629
0.004199
0.003615
0.004388
0.00552
0.005893
0.004843
0.00484
0.005124
0.005545
0.005723
0.005364
0.005427
0.006801
0.007913
0.008764
0.009472
0.009356
0.01212
0.3
0.9733
0.0001614
0.0001771
0.0002304
0.0003381
0.0005965
0.0009682
0.001399
0.002026
0.003125
0.005001
0.0091
0.01524
0.02394
0.03169
0.03762
0.03991
0.04388
0.04345
0.03805
0.03166
0.02495
0.02094
0.01952
0.0196
0.02016
0.02104
0.02076
0.02022
0.0196
0.01835
0.01752
0.01795
0.01879
0.01979
0.02101
0.02347
0.02428
0.02414
0.02234
0.02164
0.0205
0.02088
0.02059
0.01872
0.01706
0.01673
0.01695
0.01735
0.01812
0.01807
0.01862
0.01969
0.0211
0.02223
0.0209
0.01939
0.01796
0.01668
0.01554
0.01526
0.01392
0.01344
0.01247
0.01229
0.01322
0.01615
0.01736
0.0181
0.01656
0.0162
0.01754
0.0199
0.01924
0.01777
0.01655
0.01785
0.02137
0.02729
0.0317
0.03212
0.03158
0.03048
0.03144
0.03422
0.04009
0.04384
0.04693
0.04654
0.04769
0.04905
0.04858
0.05147
0.05459
0.05693
0.0567
0.05403
0.04742
0.04356
0.04141
0.03988
0.04068
0.04161
0.04304
0.04054
0.03388
0.03104
0.03498
0.0421
0.04608
0.0428
0.03125
0.02371
0.021
0.02124
0.02109
0.02084
0.0208
0.02092
0.02167
0.02255
0.02331
0.02365
0.02359
0.02292
0.02255
0.02251
0.02197
0.02129
0.02045
0.01952
0.01832
0.01935
0.02107
0.02444
0.02735
0.02852
0.02766
0.02627
0.01959
0.01288
0.01092
0.00988
0.01049
0.01251
0.01327
0.01205
0.01264
0.01405
0.01577
0.01545
0.01355
0.01269
0.01451
0.01918
0.02862
0.04591
0.07247
0.1483
0.5453
0.9226
0.0002414
0.0002469
0.0003001
0.0004094
0.0007185
0.001182
0.001717
0.00249
0.003584
0.005842
0.01076
0.01918
0.03073
0.04272
0.04553
0.04514
0.04865
0.04843
0.04215
0.03616
0.02787
0.02345
0.02319
0.02394
0.02359
0.02573
0.02748
0.03005
0.03354
0.03459
0.03337
0.03464
0.03368
0.03135
0.02869
0.02767
0.02661
0.02624
0.02439
0.02475
0.02537
0.02802
0.02913
0.0288
0.02665
0.02597
0.02564
0.02558
0.02622
0.02697
0.02536
0.02291
0.02082
0.01936
0.01707
0.01663
0.0157
0.01449
0.01363
0.01364
0.01309
0.01318
0.013
0.01389
0.0144
0.01551
0.01559
0.01565
0.01417
0.01427
0.01499
0.01531
0.01416
0.01461
0.01658
0.02306
0.03345
0.04482
0.05096
0.05212
0.05015
0.04685
0.04752
0.05131
0.0611
0.06661
0.07159
0.07199
0.06824
0.06216
0.05419
0.0491
0.04539
0.0481
0.05059
0.0522
0.05124
0.05047
0.04754
0.04601
0.0485
0.05318
0.05957
0.05952
0.05357
0.05035
0.0535
0.0636
0.07326
0.07117
0.0578
0.04839
0.04303
0.04364
0.04402
0.04457
0.04275
0.03974
0.03744
0.03595
0.03593
0.03713
0.03739
0.03657
0.03614
0.03619
0.03541
0.03431
0.03264
0.03129
0.0297
0.03103
0.03318
0.03663
0.04121
0.04316
0.04261
0.04082
0.03457
0.02757
0.02577
0.02464
0.02591
0.02905
0.03061
0.02808
0.02734
0.02819
0.03051
0.02999
0.02907
0.02914
0.038
0.06051
0.116
0.2615
0.5188
0.7377
0.8686
0.9576
0.0004271
0.0004249
0.0004831
0.0006218
0.001038
0.001618
0.002179
0.002898
0.003982
0.006593
0.0105
0.01193
0.01319
0.01587
0.0168
0.02054
0.02798
0.02214
0.01492
0.01085
0.007575
0.006224
0.007882
0.009743
0.01036
0.01298
0.01664
0.02119
0.02849
0.03497
0.03495
0.03894
0.03915
0.03699
0.03299
0.03011
0.02807
0.02827
0.02683
0.02958
0.0345
0.04379
0.05423
0.06116
0.0506
0.03954
0.02945
0.02297
0.02018
0.02102
0.01854
0.01571
0.01459
0.01386
0.01231
0.01223
0.01139
0.01075
0.01116
0.01249
0.01312
0.01426
0.01512
0.01587
0.01574
0.01593
0.01453
0.01345
0.01206
0.01317
0.0153
0.0162
0.01657
0.01928
0.02198
0.03296
0.04908
0.06135
0.06267
0.0645
0.06092
0.05761
0.05909
0.06238
0.06831
0.07264
0.07739
0.07873
0.07772
0.07685
0.07461
0.07151
0.06505
0.06758
0.06922
0.07133
0.07262
0.07363
0.06879
0.06783
0.06835
0.07007
0.08045
0.08273
0.07341
0.06745
0.06481
0.07326
0.0856
0.0936
0.08099
0.07318
0.06593
0.06775
0.0709
0.076
0.07484
0.07041
0.06551
0.06181
0.06012
0.06298
0.06395
0.06308
0.06279
0.06324
0.0623
0.06089
0.05918
0.05751
0.05565
0.05778
0.06158
0.0684
0.07087
0.06446
0.05492
0.04509
0.04097
0.04187
0.04471
0.04605
0.04819
0.05093
0.05614
0.0576
0.05948
0.06471
0.07568
0.08211
0.0957
0.1114
0.1596
0.2931
0.5764
0.7868
0.8998
0.9592
0.9844
0.9949
0.0008867
0.0009614
0.001109
0.001429
0.002094
0.002685
0.002815
0.003408
0.004386
0.006372
0.007199
0.004546
0.002996
0.003339
0.004192
0.007023
0.013
0.008152
0.004144
0.002888
0.002367
0.002119
0.003317
0.004033
0.004322
0.006569
0.01151
0.02061
0.03358
0.03976
0.02981
0.02554
0.02125
0.01862
0.0174
0.01608
0.01426
0.0162
0.01933
0.02753
0.03452
0.03926
0.03412
0.02918
0.01991
0.01445
0.00927
0.007582
0.007761
0.01049
0.01143
0.01178
0.01119
0.01121
0.01043
0.01052
0.01006
0.00994
0.01215
0.01573
0.01896
0.02241
0.02601
0.0273
0.02384
0.019
0.0152
0.01235
0.01051
0.0113
0.01341
0.01385
0.01644
0.0222
0.02924
0.04108
0.05778
0.0635
0.06251
0.06882
0.06711
0.06406
0.06635
0.07194
0.0809
0.09078
0.09958
0.1019
0.104
0.1062
0.102
0.1022
0.09693
0.1033
0.1089
0.1224
0.1273
0.1307
0.123
0.1154
0.1003
0.08292
0.08126
0.08126
0.07508
0.07999
0.08116
0.08277
0.08922
0.1065
0.09639
0.09282
0.08667
0.08988
0.08594
0.08065
0.06798
0.05608
0.04626
0.0444
0.04281
0.0445
0.04483
0.04445
0.04456
0.04515
0.04521
0.04506
0.04493
0.04487
0.04471
0.04501
0.04563
0.04865
0.04703
0.04214
0.0375
0.03488
0.03491
0.04056
0.04697
0.05155
0.05637
0.06398
0.07765
0.08745
0.09869
0.1112
0.1439
0.184
0.2744
0.4157
0.5735
0.7298
0.8585
0.9352
0.9729
0.9898
0.9963
0.9987
0.001613
0.00204
0.002547
0.003512
0.004315
0.004365
0.003659
0.003828
0.00455
0.005803
0.004942
0.00189
0.000728
0.0006404
0.001175
0.002653
0.005643
0.003687
0.001901
0.001546
0.00176
0.001848
0.003225
0.002397
0.001694
0.001854
0.002995
0.005871
0.01312
0.01492
0.01017
0.008045
0.006803
0.00646
0.007706
0.008011
0.006399
0.006546
0.007686
0.008606
0.007671
0.006888
0.004315
0.002928
0.0019
0.001032
0.0003826
0.000284
0.0003236
0.000569
0.0008296
0.001307
0.001835
0.002345
0.002603
0.002485
0.002194
0.002535
0.004956
0.009602
0.01559
0.01955
0.01916
0.01849
0.01583
0.01275
0.01354
0.01382
0.01304
0.01519
0.0196
0.02018
0.02506
0.03424
0.04202
0.05305
0.06711
0.07481
0.08132
0.1014
0.1138
0.1225
0.1334
0.1482
0.1649
0.1825
0.1993
0.2054
0.2165
0.234
0.259
0.2638
0.249
0.2514
0.2529
0.2604
0.2613
0.2624
0.2479
0.2342
0.1976
0.1503
0.1292
0.1191
0.106
0.1045
0.08599
0.07857
0.07634
0.07958
0.06681
0.06204
0.0567
0.05727
0.05124
0.04551
0.03701
0.03055
0.02591
0.02536
0.02393
0.02389
0.02357
0.02353
0.02389
0.02456
0.02544
0.02654
0.02788
0.02932
0.03056
0.03174
0.03364
0.0381
0.03884
0.03789
0.03466
0.03551
0.0386
0.04844
0.05858
0.06799
0.08004
0.09847
0.1305
0.1654
0.2147
0.289
0.4172
0.5455
0.6715
0.7639
0.8414
0.9053
0.9521
0.9785
0.9912
0.9963
0.9984
0.9993
0.002689
0.003861
0.00509
0.006912
0.007475
0.006636
0.004944
0.004987
0.006194
0.006686
0.004007
0.001149
0.000298
0.0002614
0.0003953
0.001129
0.003058
0.003209
0.00231
0.002743
0.004139
0.004181
0.005901
0.002615
0.001322
0.001049
0.001435
0.002478
0.006231
0.007051
0.004796
0.003304
0.003078
0.003539
0.004615
0.004555
0.002939
0.002531
0.003257
0.003466
0.00234
0.001405
0.0005532
0.0002675
0.0001643
5.883e-05
1.627e-05
1.113e-05
1.371e-05
3.229e-05
6.093e-05
0.0001131
0.0001904
0.0002965
0.0003657
0.0003523
0.0003336
0.0004745
0.001434
0.003867
0.009167
0.01448
0.01569
0.0177
0.01887
0.01641
0.0206
0.02403
0.02539
0.02813
0.03916
0.0402
0.05513
0.07798
0.09554
0.1145
0.1366
0.1494
0.164
0.2025
0.2372
0.2691
0.3093
0.3614
0.429
0.4759
0.5102
0.5229
0.5518
0.5804
0.5968
0.6029
0.5952
0.5883
0.5833
0.5867
0.5815
0.5709
0.547
0.5178
0.4434
0.3174
0.2724
0.2462
0.2163
0.2076
0.1728
0.1301
0.1089
0.09917
0.07861
0.06727
0.05772
0.0541
0.04456
0.03652
0.02691
0.02225
0.01931
0.0194
0.01846
0.01801
0.0177
0.01787
0.01853
0.01952
0.02074
0.0222
0.02399
0.02603
0.02821
0.03078
0.03452
0.04138
0.04588
0.05213
0.0606
0.07296
0.0903
0.1224
0.1558
0.1955
0.2509
0.334
0.4524
0.5492
0.6328
0.7048
0.7682
0.8229
0.8704
0.9106
0.945
0.9696
0.9851
0.9932
0.9967
0.9983
0.9991
0.9995
0.005278
0.007645
0.009508
0.01213
0.01245
0.01021
0.007514
0.007886
0.008017
0.005904
0.003008
0.0008224
0.0002087
0.0001838
0.0002906
0.0008877
0.002889
0.005047
0.006231
0.01092
0.01513
0.01424
0.01627
0.007214
0.00312
0.001483
0.001617
0.002003
0.003986
0.004439
0.003401
0.003173
0.003147
0.003726
0.004345
0.003839
0.002288
0.002109
0.003047
0.002202
0.001038
0.0003717
0.0001293
5.037e-05
3.493e-05
1.044e-05
2.694e-06
1.861e-06
2.623e-06
6.791e-06
1.498e-05
3.501e-05
8.22e-05
0.000169
0.0002157
0.0001419
9.43e-05
0.0001069
0.0003116
0.001044
0.003794
0.00906
0.01302
0.01798
0.02247
0.02354
0.03336
0.04464
0.05157
0.06594
0.0985
0.1149
0.1534
0.2032
0.2375
0.2668
0.3056
0.3761
0.4392
0.5125
0.5563
0.5919
0.6282
0.6669
0.7055
0.7353
0.757
0.771
0.7994
0.8276
0.8466
0.8579
0.8581
0.8504
0.8377
0.8253
0.8042
0.7788
0.7513
0.7228
0.6777
0.6303
0.6021
0.5717
0.522
0.4791
0.4279
0.3415
0.2861
0.2368
0.1734
0.1297
0.1011
0.08452
0.06353
0.04875
0.03913
0.03393
0.03112
0.03228
0.03136
0.03
0.02959
0.03044
0.0325
0.03549
0.03926
0.04358
0.04881
0.05509
0.06276
0.07282
0.08719
0.1095
0.1321
0.1611
0.2002
0.2539
0.3328
0.4475
0.5366
0.6103
0.6735
0.7279
0.7792
0.8274
0.8692
0.902
0.926
0.9427
0.9574
0.9718
0.9836
0.9913
0.9956
0.9976
0.9986
0.9991
0.9994
0.9995
0.01051
0.01426
0.01578
0.01835
0.01735
0.01375
0.01121
0.009507
0.00659
0.003638
0.001565
0.000619
0.0003252
0.0003886
0.0007073
0.001673
0.003234
0.005372
0.007321
0.009811
0.01458
0.01832
0.02722
0.01943
0.01111
0.006088
0.004108
0.003919
0.005306
0.005638
0.004742
0.005441
0.004994
0.00532
0.004437
0.002883
0.001356
0.001469
0.002052
0.001017
0.0003815
0.0001168
4.543e-05
2.084e-05
2.076e-05
8.832e-06
3.655e-06
2.912e-06
4.237e-06
5.855e-06
9.707e-06
1.782e-05
3.706e-05
7.387e-05
0.0001028
7.529e-05
4.651e-05
4.704e-05
0.000112
0.0004281
0.002322
0.008232
0.01699
0.02715
0.03744
0.04111
0.06073
0.09463
0.1216
0.1658
0.2326
0.2647
0.3247
0.421
0.5062
0.5848
0.6466
0.7062
0.7414
0.7673
0.7886
0.8097
0.8339
0.8584
0.8818
0.8986
0.9087
0.9146
0.9211
0.9262
0.9285
0.93
0.9307
0.9327
0.9328
0.93
0.9188
0.8984
0.8696
0.8407
0.8163
0.8026
0.7945
0.7795
0.7647
0.7473
0.7318
0.7114
0.6881
0.64
0.5736
0.4879
0.3838
0.2848
0.2052
0.155
0.1222
0.1011
0.08713
0.08002
0.07322
0.06997
0.06971
0.07292
0.07989
0.09027
0.1044
0.1216
0.1431
0.1698
0.2046
0.2528
0.3219
0.4151
0.5099
0.5964
0.6693
0.7283
0.7746
0.8128
0.8459
0.8739
0.8968
0.9149
0.9305
0.9447
0.957
0.9667
0.9737
0.9785
0.9846
0.9906
0.9949
0.9974
0.9985
0.9989
0.9992
0.9995
0.9996
0.9996
0.01765
0.02101
0.02226
0.02475
0.02212
0.01708
0.01148
0.006649
0.003245
0.001675
0.0007681
0.0005371
0.000566
0.0009449
0.001931
0.003274
0.005643
0.005791
0.005724
0.004779
0.006053
0.009009
0.01811
0.02469
0.02193
0.01403
0.007827
0.006583
0.005996
0.007
0.007951
0.01104
0.01018
0.009637
0.005046
0.00263
0.001524
0.001783
0.001664
0.0005641
0.0001766
5.133e-05
2.604e-05
1.97e-05
2.334e-05
1.359e-05
1.054e-05
1.14e-05
1.157e-05
9.425e-06
9.083e-06
1.018e-05
2.28e-05
5.919e-05
9.665e-05
8.835e-05
6.94e-05
6.701e-05
0.0001258
0.0004961
0.002576
0.01111
0.02585
0.04774
0.0743
0.09282
0.1268
0.2077
0.2934
0.4323
0.5387
0.6021
0.6521
0.7088
0.747
0.7815
0.8081
0.8332
0.8491
0.8621
0.8757
0.89
0.9059
0.9205
0.9336
0.9436
0.9487
0.9522
0.9554
0.9585
0.9615
0.9653
0.9693
0.9718
0.9724
0.969
0.9604
0.945
0.9252
0.9069
0.8949
0.8895
0.8843
0.8736
0.8597
0.8503
0.846
0.8437
0.8384
0.8208
0.7947
0.7576
0.7063
0.6379
0.5711
0.5166
0.4697
0.4263
0.3799
0.3256
0.2939
0.2892
0.2977
0.3222
0.3721
0.4362
0.5014
0.5593
0.6081
0.6495
0.6901
0.7303
0.7674
0.8006
0.8303
0.8561
0.8779
0.8972
0.9135
0.928
0.941
0.952
0.9608
0.9676
0.9731
0.9781
0.9824
0.9859
0.9884
0.99
0.9932
0.9962
0.9981
0.9989
0.9993
0.9994
0.9995
0.9996
0.9996
0.9995
0.02429
0.02691
0.02869
0.03229
0.02681
0.01363
0.005219
0.001987
0.0008191
0.0005282
0.0004564
0.0005651
0.001117
0.002606
0.004188
0.006221
0.007089
0.004488
0.00343
0.002172
0.00262
0.003699
0.01014
0.02272
0.03118
0.0258
0.02096
0.01634
0.01137
0.01143
0.01064
0.01084
0.007781
0.006072
0.003184
0.001721
0.001318
0.002079
0.001603
0.0005826
0.0001477
4.994e-05
2.079e-05
1.55e-05
1.467e-05
1.608e-05
3.656e-05
6.47e-05
6.691e-05
3.206e-05
1.242e-05
7.761e-06
1.783e-05
7.218e-05
0.0002051
0.0003831
0.0004281
0.0004052
0.0006338
0.002306
0.009676
0.03403
0.08192
0.1549
0.2278
0.2852
0.3576
0.4802
0.5703
0.6497
0.7013
0.7533
0.7898
0.8235
0.8436
0.86
0.8732
0.8841
0.8929
0.9017
0.9128
0.9251
0.9382
0.9491
0.9587
0.9657
0.9691
0.9717
0.9738
0.9762
0.9796
0.9833
0.9858
0.9867
0.9864
0.9828
0.9764
0.9652
0.953
0.94
0.9313
0.9257
0.9212
0.9165
0.9135
0.9125
0.913
0.914
0.9123
0.906
0.8968
0.8836
0.8641
0.8356
0.8053
0.7768
0.7512
0.7247
0.6973
0.6719
0.6597
0.6656
0.6778
0.697
0.7258
0.7585
0.7905
0.8182
0.8411
0.8597
0.8774
0.8946
0.9093
0.9222
0.9333
0.9428
0.951
0.9584
0.9645
0.97
0.9749
0.9791
0.9826
0.9854
0.9877
0.9897
0.9914
0.9928
0.9938
0.9943
0.9961
0.9978
0.9989
0.9993
0.9995
0.9995
0.9996
0.9996
0.9995
0.9992
0.02821
0.03058
0.03222
0.03386
0.0249
0.01044
0.002754
0.000852
0.0003354
0.0003636
0.0005078
0.001366
0.003411
0.005876
0.007989
0.01088
0.009171
0.006029
0.003724
0.001936
0.002243
0.003891
0.0119
0.02614
0.03787
0.03291
0.03095
0.02458
0.01903
0.01716
0.01506
0.01225
0.007499
0.004557
0.0031
0.001996
0.001851
0.003126
0.001783
0.0005799
0.0001335
3.463e-05
1.175e-05
9.193e-06
6.838e-06
1.109e-05
3.516e-05
0.0001093
0.0001182
5.318e-05
1.448e-05
9.029e-06
2.498e-05
0.0001455
0.0006051
0.001331
0.001962
0.002548
0.004558
0.01437
0.03926
0.09439
0.1784
0.2888
0.3941
0.5067
0.5791
0.6614
0.7263
0.7739
0.8029
0.8308
0.8527
0.8711
0.8798
0.8867
0.8941
0.903
0.9146
0.9269
0.9388
0.9496
0.9589
0.9663
0.9722
0.9764
0.9791
0.9819
0.9844
0.9868
0.9893
0.9911
0.9919
0.9912
0.9892
0.984
0.9773
0.9688
0.961
0.9536
0.9495
0.9467
0.9441
0.9415
0.9394
0.938
0.9377
0.9381
0.9371
0.9345
0.9306
0.9248
0.9161
0.9031
0.889
0.8755
0.8622
0.8511
0.8432
0.8368
0.837
0.8447
0.8539
0.8653
0.8802
0.8961
0.9111
0.9234
0.9333
0.9411
0.9485
0.9555
0.9614
0.9666
0.9711
0.9751
0.9786
0.9817
0.9842
0.9863
0.9882
0.9898
0.9912
0.9924
0.9934
0.9942
0.995
0.9956
0.996
0.9962
0.9971
0.9981
0.9989
0.9993
0.9994
0.9994
0.9994
0.9994
0.9992
0.9983
0.0268
0.02993
0.0298
0.02602
0.01631
0.006531
0.001645
0.0005835
0.0004246
0.0006215
0.001325
0.004009
0.006955
0.009857
0.01141
0.01186
0.009662
0.006738
0.003725
0.001979
0.00219
0.004014
0.01056
0.02067
0.03055
0.02891
0.0325
0.02948
0.02705
0.02434
0.02213
0.0164
0.01104
0.007846
0.005438
0.003878
0.003812
0.005505
0.00262
0.001003
0.0002827
8.049e-05
2.182e-05
1.767e-05
1.188e-05
2.252e-05
8.799e-05
0.0003447
0.000327
0.0001582
3.248e-05
1.638e-05
3.8e-05
0.0002501
0.001043
0.003175
0.007232
0.01217
0.02901
0.08427
0.1684
0.2727
0.3782
0.4767
0.5626
0.6493
0.7093
0.766
0.8057
0.8311
0.8476
0.8609
0.8728
0.8831
0.8893
0.8968
0.9054
0.9167
0.9298
0.9433
0.9554
0.9642
0.9704
0.9747
0.9777
0.9799
0.982
0.9851
0.9883
0.9907
0.9924
0.993
0.9924
0.9906
0.9874
0.9821
0.9763
0.971
0.9672
0.9632
0.9607
0.9586
0.9571
0.9555
0.9538
0.9514
0.9494
0.9481
0.9466
0.9452
0.9434
0.9407
0.9367
0.9311
0.9257
0.9213
0.9176
0.9157
0.916
0.9176
0.9217
0.9279
0.934
0.9399
0.9468
0.9537
0.9601
0.9656
0.9701
0.9737
0.9769
0.9798
0.9822
0.9844
0.9863
0.988
0.9894
0.9907
0.9918
0.9927
0.9934
0.9941
0.9947
0.9953
0.9958
0.9962
0.9966
0.9968
0.997
0.997
0.9973
0.9979
0.9985
0.999
0.9993
0.9993
0.9993
0.999
0.9983
0.9966
0.02466
0.02828
0.02796
0.02048
0.01131
0.005019
0.001616
0.0009846
0.0009498
0.001666
0.003287
0.007412
0.008824
0.009955
0.009548
0.009311
0.008088
0.005412
0.003242
0.002286
0.002753
0.004953
0.009371
0.01506
0.01818
0.01771
0.02127
0.0205
0.02079
0.0225
0.02382
0.02097
0.01756
0.01297
0.008724
0.006097
0.005307
0.00693
0.004719
0.002911
0.00122
0.0004694
0.0001514
0.0001209
8.396e-05
0.0001487
0.0004266
0.001471
0.001541
0.0009685
0.0002556
0.0001604
0.0003283
0.001382
0.004644
0.01347
0.02975
0.05487
0.1209
0.2703
0.4137
0.4966
0.5658
0.6368
0.6929
0.7453
0.7834
0.8148
0.8367
0.8521
0.8634
0.872
0.8792
0.8849
0.8906
0.8982
0.9074
0.9206
0.9361
0.9511
0.9625
0.9717
0.9774
0.9809
0.983
0.9834
0.9836
0.9856
0.9886
0.9905
0.9922
0.9923
0.9909
0.9876
0.9834
0.9775
0.9732
0.9711
0.9703
0.9688
0.9672
0.9657
0.9644
0.9626
0.9607
0.9577
0.9552
0.9535
0.9529
0.9522
0.9515
0.9503
0.949
0.9475
0.9459
0.9447
0.9444
0.9459
0.9493
0.9538
0.9586
0.9632
0.9672
0.9707
0.9743
0.9775
0.9804
0.9829
0.985
0.9866
0.988
0.9893
0.9904
0.9914
0.9923
0.9931
0.9937
0.9944
0.9949
0.9953
0.9957
0.996
0.9963
0.9966
0.9968
0.997
0.9972
0.9973
0.9974
0.9973
0.9972
0.9975
0.9981
0.9987
0.9991
0.9992
0.9991
0.9985
0.9971
0.9944
0.02331
0.02808
0.02926
0.01498
0.006878
0.00296
0.001488
0.001819
0.003177
0.003755
0.004721
0.005987
0.006682
0.007456
0.007555
0.005394
0.002282
0.0008953
0.000421
0.0003055
0.0005066
0.001309
0.003311
0.006641
0.01028
0.01126
0.01284
0.01202
0.01101
0.0106
0.01173
0.01454
0.01784
0.01599
0.01116
0.007692
0.006199
0.008513
0.008294
0.008112
0.005911
0.003505
0.001642
0.001418
0.001027
0.001762
0.003389
0.007751
0.008046
0.005914
0.002529
0.001635
0.002407
0.006422
0.01847
0.04566
0.09011
0.1498
0.2641
0.4419
0.5568
0.6234
0.6696
0.7111
0.7422
0.7746
0.8029
0.8262
0.8431
0.8541
0.862
0.8681
0.8729
0.877
0.8822
0.8894
0.8987
0.9134
0.9311
0.9513
0.9667
0.9784
0.9847
0.9879
0.989
0.9887
0.9872
0.9866
0.9873
0.988
0.9886
0.987
0.9836
0.9794
0.9762
0.9733
0.9726
0.9721
0.9707
0.9683
0.9659
0.9636
0.9628
0.9614
0.9599
0.9575
0.955
0.953
0.9521
0.9516
0.9518
0.9522
0.9529
0.954
0.9552
0.9567
0.9592
0.9628
0.9673
0.9719
0.976
0.9793
0.9818
0.9839
0.9857
0.9872
0.9885
0.9898
0.9909
0.9918
0.9926
0.9933
0.9939
0.9944
0.9949
0.9953
0.9956
0.9959
0.9962
0.9964
0.9967
0.9968
0.997
0.9972
0.9973
0.9974
0.9975
0.9976
0.9975
0.9975
0.9974
0.9977
0.9982
0.9987
0.9991
0.9993
0.9992
0.9985
0.9973
0.9954
0.02104
0.02674
0.03234
0.01302
0.00502
0.002477
0.002075
0.004104
0.007993
0.006763
0.005151
0.003895
0.003146
0.004991
0.003861
0.001391
0.0004232
0.0001254
6.181e-05
5.407e-05
0.0001335
0.0005656
0.002006
0.005009
0.009931
0.01048
0.01175
0.01098
0.009005
0.008115
0.009816
0.01482
0.02202
0.02378
0.01719
0.01153
0.009582
0.01211
0.01422
0.01776
0.02021
0.0177
0.01274
0.0127
0.01032
0.01035
0.01227
0.01745
0.02016
0.02092
0.01747
0.01444
0.01942
0.03149
0.06505
0.1251
0.2224
0.3362
0.4716
0.5632
0.6262
0.6701
0.7005
0.7299
0.7566
0.7822
0.8069
0.8273
0.8411
0.8489
0.8532
0.8566
0.8609
0.8652
0.8694
0.8752
0.8825
0.8994
0.9207
0.9464
0.9673
0.9811
0.9883
0.9918
0.9923
0.9911
0.988
0.9841
0.982
0.98
0.9791
0.9769
0.973
0.9699
0.9699
0.9705
0.9714
0.97
0.9669
0.9627
0.9589
0.9566
0.9561
0.9548
0.9534
0.9508
0.9486
0.9469
0.9467
0.9469
0.9481
0.9498
0.9518
0.9542
0.9571
0.9604
0.965
0.9703
0.9757
0.9803
0.9836
0.9861
0.9878
0.9892
0.9904
0.9914
0.9922
0.993
0.9937
0.9942
0.9947
0.9951
0.9954
0.9958
0.996
0.9963
0.9965
0.9967
0.9968
0.997
0.9971
0.9972
0.9974
0.9975
0.9976
0.9977
0.9977
0.9976
0.9975
0.9978
0.998
0.9984
0.9988
0.9991
0.9992
0.9994
0.9994
0.9991
0.9985
0.9973
0.01628
0.02195
0.0326
0.01296
0.004211
0.002013
0.002556
0.005778
0.01115
0.009087
0.005175
0.003358
0.002922
0.004281
0.001615
0.000344
9.959e-05
3.666e-05
2.878e-05
3.636e-05
0.0001211
0.0005393
0.002038
0.005444
0.01298
0.01203
0.01405
0.01268
0.009011
0.007239
0.008011
0.01284
0.02068
0.02494
0.02049
0.01623
0.01645
0.01963
0.02564
0.03276
0.04124
0.04468
0.04379
0.04024
0.0326
0.02663
0.02471
0.02794
0.0364
0.04115
0.04308
0.0424
0.05532
0.08322
0.1687
0.2941
0.4482
0.5218
0.5766
0.6172
0.6559
0.6906
0.7317
0.7724
0.8074
0.8353
0.8573
0.8678
0.8704
0.8641
0.8536
0.8451
0.8459
0.8485
0.8523
0.8559
0.8609
0.8792
0.905
0.9368
0.9623
0.9796
0.9875
0.9908
0.9907
0.9882
0.9824
0.9746
0.9685
0.9649
0.9628
0.9607
0.9576
0.9572
0.9606
0.9643
0.9648
0.9615
0.9547
0.9465
0.9409
0.9399
0.9417
0.9441
0.9465
0.9482
0.9485
0.9475
0.9445
0.9417
0.9405
0.9417
0.9444
0.9488
0.9538
0.96
0.9673
0.9747
0.9808
0.9852
0.9879
0.9897
0.9908
0.9918
0.9926
0.9933
0.9939
0.9944
0.9949
0.9953
0.9956
0.9959
0.9962
0.9964
0.9966
0.9967
0.9969
0.997
0.9972
0.9973
0.9974
0.9975
0.9976
0.9977
0.9977
0.9977
0.9976
0.9975
0.9977
0.9982
0.9987
0.9991
0.9993
0.9994
0.9995
0.9996
0.9996
0.9995
0.9992
0.9982
0.01092
0.01608
0.02517
0.01166
0.004114
0.00298
0.004093
0.009394
0.01287
0.009234
0.004423
0.0025
0.00204
0.002277
0.0004747
0.0001162
5.28e-05
3.74e-05
5e-05
8.313e-05
0.0002923
0.001033
0.003936
0.009875
0.02173
0.01751
0.01794
0.01597
0.0122
0.01094
0.01161
0.01612
0.02464
0.02828
0.02479
0.02308
0.0266
0.03086
0.03596
0.04198
0.05281
0.06226
0.07894
0.07641
0.06163
0.04474
0.03462
0.03491
0.04784
0.0628
0.08149
0.1016
0.1436
0.2152
0.3471
0.4691
0.5573
0.598
0.6362
0.67
0.7051
0.7504
0.8029
0.8479
0.8827
0.9019
0.911
0.9082
0.8995
0.8817
0.8611
0.8403
0.8324
0.8282
0.8284
0.8325
0.8348
0.8529
0.8807
0.9155
0.9449
0.9656
0.9776
0.9821
0.9814
0.975
0.9625
0.9472
0.9371
0.9341
0.934
0.9349
0.9336
0.9347
0.9389
0.9433
0.9427
0.9358
0.922
0.9093
0.9038
0.9096
0.9198
0.9313
0.9407
0.9458
0.9482
0.9473
0.9418
0.9358
0.9323
0.9302
0.932
0.9374
0.944
0.9533
0.9636
0.9746
0.9825
0.9876
0.9904
0.9919
0.9925
0.9931
0.9937
0.9942
0.9947
0.9951
0.9955
0.9958
0.9961
0.9963
0.9965
0.9967
0.9969
0.9971
0.9972
0.9973
0.9974
0.9975
0.9976
0.9977
0.9977
0.9977
0.9977
0.9976
0.9975
0.9977
0.9981
0.9987
0.9992
0.9994
0.9995
0.9995
0.9995
0.9995
0.9996
0.9995
0.9992
0.9981
0.00898
0.01342
0.01849
0.009677
0.003396
0.003362
0.005909
0.01424
0.01632
0.01114
0.005454
0.002668
0.001527
0.001207
0.0002476
8.332e-05
8.553e-05
0.0001305
0.0002426
0.0004529
0.001338
0.003558
0.01134
0.0252
0.04473
0.0323
0.02841
0.0223
0.01668
0.01434
0.01575
0.02073
0.03063
0.03573
0.03294
0.03241
0.04012
0.04795
0.05112
0.05065
0.05286
0.05562
0.06779
0.07364
0.07027
0.06226
0.05746
0.06128
0.07467
0.1062
0.1563
0.225
0.3175
0.4194
0.4903
0.5435
0.5986
0.6397
0.6888
0.7309
0.7773
0.8249
0.8686
0.8996
0.9215
0.929
0.9308
0.9221
0.908
0.8824
0.854
0.8221
0.8059
0.794
0.7905
0.7982
0.8017
0.8195
0.8448
0.8731
0.9036
0.9252
0.939
0.9412
0.9314
0.9097
0.8822
0.8593
0.859
0.8709
0.8771
0.8794
0.8749
0.8751
0.8825
0.8905
0.8879
0.8755
0.8532
0.8361
0.8348
0.8531
0.8746
0.9002
0.9215
0.9331
0.939
0.9379
0.9298
0.9203
0.9149
0.9104
0.9122
0.9186
0.9274
0.9399
0.9544
0.9696
0.98
0.9863
0.99
0.992
0.993
0.9937
0.9943
0.9947
0.9951
0.9955
0.9958
0.9961
0.9964
0.9966
0.9968
0.997
0.9971
0.9973
0.9974
0.9975
0.9975
0.9976
0.9976
0.9977
0.9976
0.9976
0.9974
0.9973
0.9975
0.998
0.9986
0.9992
0.9994
0.9995
0.9996
0.9995
0.9994
0.9993
0.9993
0.9992
0.9987
0.9971
0.009044
0.01255
0.01596
0.009704
0.00368
0.00467
0.007457
0.01526
0.01683
0.01385
0.007374
0.004213
0.002179
0.00136
0.0003617
0.0001923
0.0003396
0.0007397
0.001551
0.002678
0.006709
0.01261
0.02584
0.04371
0.05491
0.03967
0.03149
0.02541
0.02045
0.01886
0.02065
0.02708
0.03901
0.0474
0.04614
0.04572
0.05178
0.05503
0.05272
0.04793
0.04536
0.04785
0.05778
0.07436
0.08952
0.09914
0.1047
0.1185
0.1338
0.1703
0.2278
0.3209
0.4256
0.5155
0.5684
0.6079
0.6522
0.696
0.758
0.8132
0.861
0.8909
0.9114
0.9219
0.9303
0.9308
0.9281
0.9128
0.8959
0.8718
0.8433
0.8091
0.7794
0.7519
0.7379
0.7504
0.7577
0.772
0.7902
0.7962
0.8056
0.8102
0.8133
0.8009
0.7711
0.7113
0.656
0.6234
0.6468
0.6929
0.7227
0.7341
0.733
0.728
0.728
0.7363
0.729
0.7224
0.7175
0.721
0.7395
0.7796
0.8126
0.852
0.8843
0.8988
0.9077
0.9047
0.8966
0.8855
0.8831
0.8782
0.8822
0.8908
0.903
0.9193
0.9385
0.9588
0.9732
0.9821
0.9872
0.9905
0.9924
0.9938
0.9948
0.9952
0.9954
0.9957
0.9961
0.9964
0.9966
0.9968
0.997
0.9971
0.9972
0.9973
0.9974
0.9975
0.9975
0.9975
0.9975
0.9974
0.9973
0.9973
0.9973
0.9976
0.998
0.9986
0.9991
0.9994
0.9995
0.9995
0.9994
0.9993
0.999
0.9987
0.9983
0.9978
0.9966
0.9937
0.01038
0.01302
0.01641
0.009249
0.004025
0.004778
0.005894
0.01194
0.01527
0.01615
0.009886
0.008192
0.005172
0.003251
0.001202
0.0007691
0.001239
0.002384
0.004564
0.008749
0.01789
0.02722
0.03825
0.04412
0.0388
0.03154
0.0302
0.02344
0.01862
0.01625
0.01495
0.01859
0.03044
0.04434
0.05058
0.05348
0.05713
0.06124
0.06077
0.0581
0.05537
0.05785
0.06752
0.08748
0.1158
0.1449
0.168
0.1965
0.2158
0.2551
0.3169
0.4035
0.4804
0.5537
0.6045
0.6431
0.6875
0.737
0.8028
0.8578
0.8989
0.9164
0.924
0.9179
0.9141
0.9046
0.8968
0.8783
0.8613
0.8426
0.8188
0.7856
0.7457
0.6965
0.6688
0.6844
0.6945
0.6971
0.6937
0.6625
0.6305
0.595
0.5659
0.5116
0.4594
0.3755
0.326
0.3199
0.3431
0.3832
0.4147
0.414
0.4024
0.3873
0.3821
0.4035
0.4229
0.457
0.4945
0.5422
0.5829
0.6404
0.6815
0.7364
0.7836
0.8041
0.8186
0.8175
0.8086
0.8061
0.8171
0.822
0.8377
0.856
0.8755
0.8948
0.9179
0.9424
0.9617
0.9735
0.9816
0.9869
0.9907
0.9933
0.9948
0.9955
0.9957
0.9958
0.9961
0.9964
0.9966
0.9968
0.9969
0.997
0.997
0.9971
0.9972
0.9972
0.9972
0.9971
0.997
0.9971
0.9972
0.9976
0.998
0.9984
0.9987
0.9991
0.9994
0.9995
0.9995
0.9994
0.9991
0.9987
0.9979
0.997
0.9957
0.9943
0.992
0.9876
0.01257
0.01475
0.01792
0.009498
0.004706
0.004114
0.003358
0.007031
0.01246
0.0175
0.01428
0.01814
0.01098
0.007641
0.003969
0.003074
0.003978
0.006346
0.008675
0.01411
0.02528
0.03298
0.03844
0.03482
0.02751
0.02542
0.03091
0.02802
0.02251
0.01857
0.01425
0.0156
0.02338
0.03986
0.05642
0.06909
0.07635
0.08124
0.08205
0.08212
0.08218
0.08429
0.09321
0.1115
0.1341
0.1631
0.1944
0.2319
0.2699
0.318
0.3849
0.4667
0.5488
0.6266
0.6843
0.7224
0.7542
0.7895
0.8387
0.8835
0.9145
0.9229
0.9149
0.8911
0.8655
0.8359
0.8161
0.7935
0.7844
0.7807
0.7719
0.7437
0.6934
0.625
0.5827
0.5931
0.5987
0.5855
0.5493
0.465
0.3813
0.3124
0.2885
0.264
0.2448
0.2164
0.197
0.1825
0.1647
0.1456
0.1363
0.1283
0.1323
0.1441
0.1488
0.1467
0.1537
0.1741
0.2031
0.2426
0.2876
0.3702
0.4441
0.5311
0.586
0.5977
0.6008
0.5997
0.6054
0.6424
0.6925
0.7338
0.7758
0.8125
0.8452
0.8717
0.8977
0.9239
0.9469
0.9624
0.9738
0.9815
0.9873
0.9916
0.9941
0.9952
0.9956
0.9957
0.9959
0.9961
0.9963
0.9964
0.9964
0.9964
0.9964
0.9964
0.9965
0.9965
0.9968
0.9972
0.9975
0.998
0.9983
0.9987
0.9989
0.9992
0.9993
0.9994
0.9994
0.9994
0.9991
0.9987
0.9977
0.9965
0.9947
0.9925
0.9887
0.9854
0.9826
0.9769
0.01371
0.01558
0.02073
0.01064
0.006002
0.002679
0.001478
0.003126
0.009538
0.02109
0.02982
0.03863
0.0221
0.01603
0.01007
0.008245
0.007411
0.01022
0.01112
0.01668
0.02333
0.02711
0.02945
0.02522
0.02512
0.02766
0.03686
0.03523
0.03022
0.02177
0.01539
0.01404
0.01828
0.03317
0.05625
0.08364
0.1028
0.1119
0.1162
0.1191
0.1228
0.1283
0.1379
0.1553
0.1733
0.199
0.2317
0.2661
0.3053
0.3578
0.4303
0.5229
0.6124
0.6851
0.7426
0.781
0.8094
0.8375
0.8691
0.8932
0.9099
0.9097
0.8909
0.8504
0.8004
0.754
0.7307
0.7163
0.7168
0.7174
0.7062
0.6712
0.613
0.5303
0.4729
0.4585
0.4433
0.401
0.3324
0.2411
0.1878
0.161
0.1579
0.1549
0.138
0.1125
0.0948
0.08568
0.07552
0.06703
0.05925
0.0543
0.0599
0.07063
0.07933
0.08542
0.09287
0.1001
0.1144
0.129
0.1441
0.172
0.2039
0.2609
0.3014
0.3101
0.31
0.3312
0.3631
0.4503
0.5357
0.618
0.6961
0.7655
0.8194
0.8586
0.8896
0.9133
0.9349
0.9515
0.9644
0.9742
0.982
0.9883
0.9924
0.9943
0.9951
0.9952
0.9951
0.9952
0.9954
0.9958
0.9964
0.9969
0.9973
0.9976
0.9977
0.9978
0.9981
0.9983
0.9984
0.9985
0.9987
0.9988
0.999
0.9991
0.9991
0.9992
0.9991
0.9988
0.998
0.9963
0.9937
0.9899
0.9859
0.9818
0.976
0.9708
0.9671
0.9567
0.01176
0.01427
0.02011
0.011
0.008587
0.002739
0.001376
0.002263
0.008181
0.01709
0.03335
0.04011
0.02615
0.02024
0.016
0.01511
0.01304
0.01524
0.01722
0.0196
0.02222
0.02252
0.02137
0.01799
0.01885
0.02059
0.02903
0.03209
0.03259
0.02631
0.01737
0.01281
0.0144
0.02342
0.04421
0.07611
0.1047
0.1178
0.1316
0.1443
0.1581
0.1724
0.1871
0.2027
0.2196
0.2453
0.2843
0.331
0.3849
0.4467
0.5078
0.5828
0.6564
0.7162
0.7643
0.8008
0.8274
0.854
0.8777
0.8929
0.9007
0.8966
0.8719
0.832
0.7822
0.7366
0.7036
0.6841
0.6701
0.6547
0.6307
0.5851
0.5214
0.424
0.3428
0.296
0.2569
0.2151
0.1784
0.1371
0.1112
0.09865
0.08732
0.0748
0.05636
0.04167
0.03342
0.03409
0.03264
0.03214
0.02706
0.02393
0.02764
0.03762
0.04809
0.05658
0.06227
0.06546
0.07434
0.08331
0.09146
0.1039
0.1262
0.1567
0.1726
0.1742
0.1772
0.2043
0.2354
0.3179
0.4182
0.5208
0.6232
0.7213
0.795
0.8483
0.8843
0.9084
0.9284
0.9443
0.9572
0.9668
0.9748
0.9835
0.9905