/*--------------------------------*- C++ -*----------------------------------*\
| =========                 |                                                 |
| \\      /  F ield         | OpenFOAM: The Open Source CFD Toolbox           |
|  \\    /   O peration     | Version:  5.x                                   |
|   \\  /    A nd           | Web:      www.OpenFOAM.org                      |
|    \\/     M anipulation  |                                                 |
\*---------------------------------------------------------------------------*/
FoamFile
{
    version     2.0;
    format      ascii;
    class       volVectorField;
    location    "10";
    object      D;
}
// * * * * * * * * * * * * * * * * * * * * * * * * * * * * * * * * * * * * * //

dimensions      [0 1 0 0 0 0 0];

internalField   nonuniform List<vector> 
80000
(
(1.2412e-07 9.93e-08 0)
(3.1499e-07 2.4051e-07 0)
(4.8475e-07 3.5036e-07 0)
(6.4664e-07 4.5019e-07 0)
(8.0682e-07 5.475e-07 0)
(9.6784e-07 6.4447e-07 0)
(1.1285e-06 7.4165e-07 0)
(1.2874e-06 8.3946e-07 0)
(1.4447e-06 9.384e-07 0)
(1.6007e-06 1.0389e-06 0)
(1.7558e-06 1.1411e-06 0)
(1.91e-06 1.2452e-06 0)
(2.0633e-06 1.3513e-06 0)
(2.2159e-06 1.4595e-06 0)
(2.3678e-06 1.5698e-06 0)
(2.519e-06 1.6822e-06 0)
(2.6695e-06 1.7969e-06 0)
(2.8193e-06 1.9138e-06 0)
(2.9686e-06 2.0329e-06 0)
(3.1172e-06 2.1542e-06 0)
(3.2653e-06 2.2778e-06 0)
(3.4129e-06 2.4035e-06 0)
(3.5599e-06 2.5315e-06 0)
(3.7064e-06 2.6616e-06 0)
(3.8524e-06 2.7939e-06 0)
(3.9979e-06 2.9283e-06 0)
(4.143e-06 3.0649e-06 0)
(4.2876e-06 3.2036e-06 0)
(4.4317e-06 3.3443e-06 0)
(4.5755e-06 3.4872e-06 0)
(4.7188e-06 3.6321e-06 0)
(4.8617e-06 3.779e-06 0)
(5.0042e-06 3.928e-06 0)
(5.1464e-06 4.0789e-06 0)
(5.2882e-06 4.2318e-06 0)
(5.4296e-06 4.3867e-06 0)
(5.5707e-06 4.5435e-06 0)
(5.7114e-06 4.7021e-06 0)
(5.8518e-06 4.8627e-06 0)
(5.9919e-06 5.0252e-06 0)
(6.1316e-06 5.1894e-06 0)
(6.2711e-06 5.3556e-06 0)
(6.4102e-06 5.5235e-06 0)
(6.5491e-06 5.6931e-06 0)
(6.6877e-06 5.8646e-06 0)
(6.8261e-06 6.0378e-06 0)
(6.9642e-06 6.2126e-06 0)
(7.102e-06 6.3892e-06 0)
(7.2396e-06 6.5675e-06 0)
(7.377e-06 6.7474e-06 0)
(7.5141e-06 6.929e-06 0)
(7.6511e-06 7.1122e-06 0)
(7.7878e-06 7.2969e-06 0)
(7.9243e-06 7.4833e-06 0)
(8.0607e-06 7.6712e-06 0)
(8.1968e-06 7.8607e-06 0)
(8.3328e-06 8.0517e-06 0)
(8.4686e-06 8.2442e-06 0)
(8.6043e-06 8.4382e-06 0)
(8.7398e-06 8.6337e-06 0)
(8.8752e-06 8.8306e-06 0)
(9.0105e-06 9.0289e-06 0)
(9.1456e-06 9.2286e-06 0)
(9.2807e-06 9.4296e-06 0)
(9.4156e-06 9.6321e-06 0)
(9.5505e-06 9.8358e-06 0)
(9.6853e-06 1.0041e-05 0)
(9.8201e-06 1.0247e-05 0)
(9.9548e-06 1.0455e-05 0)
(1.009e-05 1.0664e-05 0)
(1.0224e-05 1.0874e-05 0)
(1.0359e-05 1.1086e-05 0)
(1.0494e-05 1.1298e-05 0)
(1.0628e-05 1.1512e-05 0)
(1.0763e-05 1.1727e-05 0)
(1.0898e-05 1.1944e-05 0)
(1.1033e-05 1.2161e-05 0)
(1.1167e-05 1.2379e-05 0)
(1.1303e-05 1.2599e-05 0)
(1.1438e-05 1.282e-05 0)
(1.1573e-05 1.3042e-05 0)
(1.1709e-05 1.3265e-05 0)
(1.1844e-05 1.349e-05 0)
(1.198e-05 1.3715e-05 0)
(1.2116e-05 1.3942e-05 0)
(1.2252e-05 1.4169e-05 0)
(1.2389e-05 1.4398e-05 0)
(1.2525e-05 1.4627e-05 0)
(1.2662e-05 1.4857e-05 0)
(1.2799e-05 1.5087e-05 0)
(1.2936e-05 1.5318e-05 0)
(1.3074e-05 1.5549e-05 0)
(1.3213e-05 1.5781e-05 0)
(1.3352e-05 1.6014e-05 0)
(1.3492e-05 1.6248e-05 0)
(1.3635e-05 1.6482e-05 0)
(1.3779e-05 1.6717e-05 0)
(1.3928e-05 1.6952e-05 0)
(1.4079e-05 1.7189e-05 0)
(1.4234e-05 1.7426e-05 0)
(1.4394e-05 1.7666e-05 0)
(1.4559e-05 1.7907e-05 0)
(1.4728e-05 1.8151e-05 0)
(1.4899e-05 1.8398e-05 0)
(1.5069e-05 1.8648e-05 0)
(1.5238e-05 1.8901e-05 0)
(1.5405e-05 1.9156e-05 0)
(1.5572e-05 1.9414e-05 0)
(1.5738e-05 1.9674e-05 0)
(1.5903e-05 1.9936e-05 0)
(1.6068e-05 2.0201e-05 0)
(1.6232e-05 2.0467e-05 0)
(1.6396e-05 2.0736e-05 0)
(1.6559e-05 2.1006e-05 0)
(1.6722e-05 2.1279e-05 0)
(1.6885e-05 2.1553e-05 0)
(1.7048e-05 2.183e-05 0)
(1.721e-05 2.2108e-05 0)
(1.7372e-05 2.2388e-05 0)
(1.7533e-05 2.267e-05 0)
(1.7695e-05 2.2954e-05 0)
(1.7856e-05 2.3239e-05 0)
(1.8017e-05 2.3527e-05 0)
(1.8177e-05 2.3816e-05 0)
(1.8338e-05 2.4107e-05 0)
(1.8498e-05 2.44e-05 0)
(1.8659e-05 2.4695e-05 0)
(1.8819e-05 2.4991e-05 0)
(1.8979e-05 2.5289e-05 0)
(1.9138e-05 2.5589e-05 0)
(1.9298e-05 2.5891e-05 0)
(1.9457e-05 2.6194e-05 0)
(1.9617e-05 2.6499e-05 0)
(1.9776e-05 2.6806e-05 0)
(1.9935e-05 2.7115e-05 0)
(2.0094e-05 2.7425e-05 0)
(2.0253e-05 2.7737e-05 0)
(2.0412e-05 2.8051e-05 0)
(2.0571e-05 2.8367e-05 0)
(2.073e-05 2.8684e-05 0)
(2.0888e-05 2.9003e-05 0)
(2.1047e-05 2.9324e-05 0)
(2.1205e-05 2.9646e-05 0)
(2.1363e-05 2.997e-05 0)
(2.1522e-05 3.0296e-05 0)
(2.168e-05 3.0624e-05 0)
(2.1838e-05 3.0953e-05 0)
(2.1996e-05 3.1284e-05 0)
(2.2154e-05 3.1617e-05 0)
(2.2312e-05 3.1951e-05 0)
(2.247e-05 3.2287e-05 0)
(2.2628e-05 3.2625e-05 0)
(2.2785e-05 3.2964e-05 0)
(2.2943e-05 3.3306e-05 0)
(2.3101e-05 3.3649e-05 0)
(2.3258e-05 3.3993e-05 0)
(2.3416e-05 3.434e-05 0)
(2.3573e-05 3.4688e-05 0)
(2.3731e-05 3.5037e-05 0)
(2.3888e-05 3.5389e-05 0)
(2.4046e-05 3.5742e-05 0)
(2.4203e-05 3.6097e-05 0)
(2.436e-05 3.6453e-05 0)
(2.4517e-05 3.6812e-05 0)
(2.4675e-05 3.7172e-05 0)
(2.4832e-05 3.7533e-05 0)
(2.4989e-05 3.7897e-05 0)
(2.5146e-05 3.8262e-05 0)
(2.5303e-05 3.8629e-05 0)
(2.546e-05 3.8997e-05 0)
(2.5617e-05 3.9367e-05 0)
(2.5774e-05 3.9739e-05 0)
(2.5931e-05 4.0113e-05 0)
(2.6088e-05 4.0488e-05 0)
(2.6245e-05 4.0865e-05 0)
(2.6402e-05 4.1244e-05 0)
(2.6559e-05 4.1625e-05 0)
(2.6715e-05 4.2007e-05 0)
(2.6872e-05 4.2391e-05 0)
(2.7029e-05 4.2776e-05 0)
(2.7186e-05 4.3164e-05 0)
(2.7342e-05 4.3553e-05 0)
(2.7499e-05 4.3944e-05 0)
(2.7656e-05 4.4336e-05 0)
(2.7812e-05 4.473e-05 0)
(2.7969e-05 4.5126e-05 0)
(2.8125e-05 4.5524e-05 0)
(2.8282e-05 4.5923e-05 0)
(2.8438e-05 4.6324e-05 0)
(2.8594e-05 4.6727e-05 0)
(2.8751e-05 4.7132e-05 0)
(2.8907e-05 4.7538e-05 0)
(2.9063e-05 4.7946e-05 0)
(2.922e-05 4.8356e-05 0)
(2.9376e-05 4.8767e-05 0)
(2.9532e-05 4.918e-05 0)
(2.9688e-05 4.9595e-05 0)
(2.9845e-05 5.0012e-05 0)
(3.0001e-05 5.043e-05 0)
(3.0157e-05 5.085e-05 0)
(3.0313e-05 5.1272e-05 0)
(3.0469e-05 5.1695e-05 0)
(3.0625e-05 5.212e-05 0)
(3.0781e-05 5.2547e-05 0)
(3.0937e-05 5.2976e-05 0)
(3.1093e-05 5.3407e-05 0)
(3.1249e-05 5.3839e-05 0)
(3.1405e-05 5.4273e-05 0)
(3.1561e-05 5.4708e-05 0)
(3.1716e-05 5.5146e-05 0)
(3.1872e-05 5.5585e-05 0)
(3.2028e-05 5.6026e-05 0)
(3.2183e-05 5.6469e-05 0)
(3.2339e-05 5.6913e-05 0)
(3.2495e-05 5.7359e-05 0)
(3.265e-05 5.7807e-05 0)
(3.2806e-05 5.8257e-05 0)
(3.2961e-05 5.8708e-05 0)
(3.3116e-05 5.9161e-05 0)
(3.3272e-05 5.9616e-05 0)
(3.3427e-05 6.0073e-05 0)
(3.3582e-05 6.0532e-05 0)
(3.3737e-05 6.0992e-05 0)
(3.3892e-05 6.1454e-05 0)
(3.4047e-05 6.1918e-05 0)
(3.4202e-05 6.2383e-05 0)
(3.4357e-05 6.285e-05 0)
(3.4511e-05 6.3319e-05 0)
(3.4666e-05 6.379e-05 0)
(3.4821e-05 6.4263e-05 0)
(3.4975e-05 6.4737e-05 0)
(3.5129e-05 6.5213e-05 0)
(3.5284e-05 6.5691e-05 0)
(3.5438e-05 6.6171e-05 0)
(3.5592e-05 6.6652e-05 0)
(3.5746e-05 6.7135e-05 0)
(3.59e-05 6.762e-05 0)
(3.6054e-05 6.8107e-05 0)
(3.6207e-05 6.8595e-05 0)
(3.6361e-05 6.9085e-05 0)
(3.6514e-05 6.9577e-05 0)
(3.6668e-05 7.0071e-05 0)
(3.6821e-05 7.0566e-05 0)
(3.6974e-05 7.1064e-05 0)
(3.7127e-05 7.1563e-05 0)
(3.728e-05 7.2063e-05 0)
(3.7433e-05 7.2566e-05 0)
(3.7585e-05 7.307e-05 0)
(3.7738e-05 7.3576e-05 0)
(3.789e-05 7.4084e-05 0)
(3.8042e-05 7.4594e-05 0)
(3.8194e-05 7.5105e-05 0)
(3.8346e-05 7.5619e-05 0)
(3.8498e-05 7.6134e-05 0)
(3.8649e-05 7.665e-05 0)
(3.88e-05 7.7169e-05 0)
(3.8951e-05 7.7689e-05 0)
(3.9102e-05 7.8211e-05 0)
(3.9252e-05 7.8735e-05 0)
(3.9402e-05 7.9261e-05 0)
(3.9553e-05 7.9788e-05 0)
(3.9702e-05 8.0317e-05 0)
(3.9852e-05 8.0848e-05 0)
(4.0002e-05 8.138e-05 0)
(4.0151e-05 8.1914e-05 0)
(4.03e-05 8.245e-05 0)
(4.0449e-05 8.2988e-05 0)
(4.0597e-05 8.3528e-05 0)
(4.0745e-05 8.4069e-05 0)
(4.0893e-05 8.4612e-05 0)
(4.104e-05 8.5156e-05 0)
(4.1187e-05 8.5703e-05 0)
(4.1334e-05 8.6251e-05 0)
(4.148e-05 8.68e-05 0)
(4.1627e-05 8.7351e-05 0)
(4.1773e-05 8.7904e-05 0)
(4.1919e-05 8.8458e-05 0)
(4.2065e-05 8.9014e-05 0)
(4.2213e-05 8.9571e-05 0)
(4.2364e-05 9.0129e-05 0)
(4.2516e-05 9.0688e-05 0)
(4.267e-05 9.1248e-05 0)
(4.2824e-05 9.1811e-05 0)
(4.2977e-05 9.2375e-05 0)
(4.3127e-05 9.2942e-05 0)
(4.3275e-05 9.3511e-05 0)
(4.342e-05 9.4083e-05 0)
(4.3562e-05 9.4658e-05 0)
(4.3702e-05 9.5234e-05 0)
(4.3841e-05 9.5813e-05 0)
(4.3979e-05 9.6393e-05 0)
(4.4115e-05 9.6975e-05 0)
(4.4249e-05 9.7559e-05 0)
(4.4383e-05 9.8145e-05 0)
(4.4517e-05 9.8732e-05 0)
(4.4651e-05 9.9321e-05 0)
(4.4785e-05 9.9911e-05 0)
(4.492e-05 0.0001005 0)
(4.5054e-05 0.00010109 0)
(4.5188e-05 0.00010169 0)
(4.5322e-05 0.00010228 0)
(4.5457e-05 0.00010288 0)
(4.5591e-05 0.00010348 0)
(4.5724e-05 0.00010408 0)
(4.5858e-05 0.00010468 0)
(4.5991e-05 0.00010528 0)
(4.6124e-05 0.00010589 0)
(4.6257e-05 0.00010649 0)
(4.6389e-05 0.0001071 0)
(4.652e-05 0.00010771 0)
(4.6652e-05 0.00010832 0)
(4.6782e-05 0.00010893 0)
(4.6912e-05 0.00010954 0)
(4.7041e-05 0.00011016 0)
(4.7169e-05 0.00011077 0)
(4.7297e-05 0.00011139 0)
(4.7424e-05 0.00011201 0)
(4.755e-05 0.00011263 0)
(4.7674e-05 0.00011325 0)
(4.7798e-05 0.00011387 0)
(4.7921e-05 0.00011449 0)
(4.8043e-05 0.00011512 0)
(4.8163e-05 0.00011574 0)
(4.8282e-05 0.00011637 0)
(4.84e-05 0.00011699 0)
(4.8516e-05 0.00011762 0)
(4.8632e-05 0.00011825 0)
(4.8745e-05 0.00011888 0)
(4.8857e-05 0.00011951 0)
(4.8968e-05 0.00012014 0)
(4.9076e-05 0.00012077 0)
(4.9183e-05 0.00012141 0)
(4.9289e-05 0.00012204 0)
(4.9392e-05 0.00012267 0)
(4.9494e-05 0.00012331 0)
(4.9593e-05 0.00012394 0)
(4.9691e-05 0.00012458 0)
(4.9787e-05 0.00012521 0)
(4.988e-05 0.00012585 0)
(4.9971e-05 0.00012648 0)
(5.006e-05 0.00012712 0)
(5.0147e-05 0.00012776 0)
(5.0232e-05 0.00012839 0)
(5.0314e-05 0.00012903 0)
(5.0394e-05 0.00012966 0)
(5.0471e-05 0.0001303 0)
(5.0546e-05 0.00013094 0)
(5.0619e-05 0.00013157 0)
(5.0689e-05 0.00013221 0)
(5.0756e-05 0.00013284 0)
(5.0821e-05 0.00013347 0)
(5.0883e-05 0.00013411 0)
(5.0943e-05 0.00013474 0)
(5.1e-05 0.00013537 0)
(5.1054e-05 0.000136 0)
(5.1106e-05 0.00013663 0)
(5.1155e-05 0.00013726 0)
(5.1202e-05 0.00013789 0)
(5.1246e-05 0.00013851 0)
(5.1287e-05 0.00013914 0)
(5.1326e-05 0.00013976 0)
(5.1363e-05 0.00014038 0)
(5.1396e-05 0.000141 0)
(5.1428e-05 0.00014162 0)
(5.1457e-05 0.00014224 0)
(5.1483e-05 0.00014285 0)
(5.1508e-05 0.00014347 0)
(5.153e-05 0.00014408 0)
(5.155e-05 0.00014469 0)
(5.1568e-05 0.00014529 0)
(5.1583e-05 0.0001459 0)
(5.1597e-05 0.0001465 0)
(5.1609e-05 0.0001471 0)
(5.1619e-05 0.0001477 0)
(5.1628e-05 0.0001483 0)
(5.1635e-05 0.00014889 0)
(5.164e-05 0.00014948 0)
(5.1644e-05 0.00015007 0)
(5.1647e-05 0.00015066 0)
(5.1648e-05 0.00015124 0)
(5.1649e-05 0.00015183 0)
(5.1648e-05 0.00015241 0)
(5.1647e-05 0.00015298 0)
(5.1645e-05 0.00015356 0)
(5.1643e-05 0.00015413 0)
(5.164e-05 0.0001547 0)
(5.1637e-05 0.00015527 0)
(5.1633e-05 0.00015584 0)
(5.163e-05 0.0001564 0)
(5.1626e-05 0.00015696 0)
(5.1623e-05 0.00015753 0)
(5.162e-05 0.00015809 0)
(5.1617e-05 0.00015865 0)
(5.1615e-05 0.0001592 0)
(5.1613e-05 0.00015976 0)
(5.1612e-05 0.00016032 0)
(5.1611e-05 0.00016087 0)
(5.161e-05 0.00016143 0)
(5.161e-05 0.00016199 0)
(5.161e-05 0.00016254 0)
(7.4148e-08 6.4328e-08 0)
(2.4282e-07 1.8829e-07 0)
(4.0856e-07 2.9944e-07 0)
(5.688e-07 4.0152e-07 0)
(7.269e-07 4.9968e-07 0)
(8.8542e-07 5.9691e-07 0)
(1.0435e-06 6.9438e-07 0)
(1.1998e-06 7.9258e-07 0)
(1.3545e-06 8.919e-07 0)
(1.508e-06 9.9269e-07 0)
(1.6604e-06 1.0952e-06 0)
(1.812e-06 1.1995e-06 0)
(1.9628e-06 1.3058e-06 0)
(2.1128e-06 1.4142e-06 0)
(2.2622e-06 1.5247e-06 0)
(2.4108e-06 1.6374e-06 0)
(2.5588e-06 1.7523e-06 0)
(2.7061e-06 1.8693e-06 0)
(2.8529e-06 1.9886e-06 0)
(2.9992e-06 2.1101e-06 0)
(3.1448e-06 2.2338e-06 0)
(3.29e-06 2.3597e-06 0)
(3.4347e-06 2.4878e-06 0)
(3.5789e-06 2.6181e-06 0)
(3.7226e-06 2.7505e-06 0)
(3.8658e-06 2.8851e-06 0)
(4.0086e-06 3.0218e-06 0)
(4.151e-06 3.1606e-06 0)
(4.293e-06 3.3015e-06 0)
(4.4346e-06 3.4445e-06 0)
(4.5758e-06 3.5895e-06 0)
(4.7166e-06 3.7365e-06 0)
(4.857e-06 3.8856e-06 0)
(4.9971e-06 4.0366e-06 0)
(5.1368e-06 4.1896e-06 0)
(5.2762e-06 4.3446e-06 0)
(5.4153e-06 4.5015e-06 0)
(5.5541e-06 4.6603e-06 0)
(5.6925e-06 4.821e-06 0)
(5.8307e-06 4.9835e-06 0)
(5.9686e-06 5.1479e-06 0)
(6.1062e-06 5.3141e-06 0)
(6.2435e-06 5.482e-06 0)
(6.3806e-06 5.6518e-06 0)
(6.5174e-06 5.8233e-06 0)
(6.6539e-06 5.9966e-06 0)
(6.7903e-06 6.1715e-06 0)
(6.9264e-06 6.3482e-06 0)
(7.0622e-06 6.5265e-06 0)
(7.1979e-06 6.7065e-06 0)
(7.3334e-06 6.8881e-06 0)
(7.4686e-06 7.0714e-06 0)
(7.6037e-06 7.2562e-06 0)
(7.7386e-06 7.4426e-06 0)
(7.8734e-06 7.6306e-06 0)
(8.008e-06 7.8201e-06 0)
(8.1424e-06 8.0112e-06 0)
(8.2767e-06 8.2037e-06 0)
(8.4108e-06 8.3978e-06 0)
(8.5448e-06 8.5933e-06 0)
(8.6788e-06 8.7902e-06 0)
(8.8126e-06 8.9885e-06 0)
(8.9463e-06 9.1883e-06 0)
(9.0799e-06 9.3894e-06 0)
(9.2134e-06 9.5918e-06 0)
(9.3469e-06 9.7956e-06 0)
(9.4804e-06 1.0001e-05 0)
(9.6138e-06 1.0207e-05 0)
(9.7472e-06 1.0415e-05 0)
(9.8805e-06 1.0624e-05 0)
(1.0014e-05 1.0834e-05 0)
(1.0147e-05 1.1045e-05 0)
(1.0281e-05 1.1258e-05 0)
(1.0414e-05 1.1472e-05 0)
(1.0548e-05 1.1687e-05 0)
(1.0681e-05 1.1903e-05 0)
(1.0815e-05 1.2121e-05 0)
(1.0948e-05 1.2339e-05 0)
(1.1082e-05 1.2559e-05 0)
(1.1216e-05 1.278e-05 0)
(1.135e-05 1.3002e-05 0)
(1.1485e-05 1.3225e-05 0)
(1.1619e-05 1.3449e-05 0)
(1.1754e-05 1.3674e-05 0)
(1.1889e-05 1.3901e-05 0)
(1.2024e-05 1.4128e-05 0)
(1.2159e-05 1.4357e-05 0)
(1.2295e-05 1.4586e-05 0)
(1.2431e-05 1.4816e-05 0)
(1.2568e-05 1.5046e-05 0)
(1.2705e-05 1.5276e-05 0)
(1.2842e-05 1.5508e-05 0)
(1.298e-05 1.574e-05 0)
(1.3119e-05 1.5972e-05 0)
(1.3261e-05 1.6205e-05 0)
(1.3404e-05 1.6439e-05 0)
(1.3549e-05 1.6673e-05 0)
(1.3698e-05 1.6907e-05 0)
(1.385e-05 1.7142e-05 0)
(1.4005e-05 1.7379e-05 0)
(1.4164e-05 1.7617e-05 0)
(1.4327e-05 1.7858e-05 0)
(1.4492e-05 1.8101e-05 0)
(1.4658e-05 1.8348e-05 0)
(1.4825e-05 1.8598e-05 0)
(1.499e-05 1.8851e-05 0)
(1.5155e-05 1.9106e-05 0)
(1.5318e-05 1.9364e-05 0)
(1.5482e-05 1.9625e-05 0)
(1.5644e-05 1.9887e-05 0)
(1.5807e-05 2.0152e-05 0)
(1.5969e-05 2.0418e-05 0)
(1.613e-05 2.0687e-05 0)
(1.6292e-05 2.0958e-05 0)
(1.6452e-05 2.123e-05 0)
(1.6613e-05 2.1505e-05 0)
(1.6774e-05 2.1781e-05 0)
(1.6934e-05 2.206e-05 0)
(1.7094e-05 2.234e-05 0)
(1.7253e-05 2.2622e-05 0)
(1.7413e-05 2.2906e-05 0)
(1.7572e-05 2.3191e-05 0)
(1.7731e-05 2.3479e-05 0)
(1.789e-05 2.3768e-05 0)
(1.8049e-05 2.4059e-05 0)
(1.8207e-05 2.4352e-05 0)
(1.8366e-05 2.4647e-05 0)
(1.8524e-05 2.4943e-05 0)
(1.8682e-05 2.5241e-05 0)
(1.884e-05 2.5541e-05 0)
(1.8998e-05 2.5843e-05 0)
(1.9156e-05 2.6146e-05 0)
(1.9313e-05 2.6452e-05 0)
(1.9471e-05 2.6759e-05 0)
(1.9628e-05 2.7067e-05 0)
(1.9785e-05 2.7378e-05 0)
(1.9943e-05 2.769e-05 0)
(2.01e-05 2.8004e-05 0)
(2.0257e-05 2.8319e-05 0)
(2.0414e-05 2.8637e-05 0)
(2.057e-05 2.8956e-05 0)
(2.0727e-05 2.9276e-05 0)
(2.0884e-05 2.9599e-05 0)
(2.1041e-05 2.9923e-05 0)
(2.1197e-05 3.0249e-05 0)
(2.1354e-05 3.0576e-05 0)
(2.151e-05 3.0906e-05 0)
(2.1666e-05 3.1237e-05 0)
(2.1823e-05 3.1569e-05 0)
(2.1979e-05 3.1904e-05 0)
(2.2135e-05 3.224e-05 0)
(2.2291e-05 3.2578e-05 0)
(2.2447e-05 3.2917e-05 0)
(2.2603e-05 3.3259e-05 0)
(2.2759e-05 3.3602e-05 0)
(2.2915e-05 3.3946e-05 0)
(2.3071e-05 3.4293e-05 0)
(2.3226e-05 3.4641e-05 0)
(2.3382e-05 3.499e-05 0)
(2.3538e-05 3.5342e-05 0)
(2.3694e-05 3.5695e-05 0)
(2.3849e-05 3.605e-05 0)
(2.4005e-05 3.6407e-05 0)
(2.416e-05 3.6765e-05 0)
(2.4316e-05 3.7125e-05 0)
(2.4471e-05 3.7487e-05 0)
(2.4627e-05 3.785e-05 0)
(2.4782e-05 3.8215e-05 0)
(2.4938e-05 3.8582e-05 0)
(2.5093e-05 3.895e-05 0)
(2.5248e-05 3.9321e-05 0)
(2.5404e-05 3.9693e-05 0)
(2.5559e-05 4.0066e-05 0)
(2.5714e-05 4.0442e-05 0)
(2.5869e-05 4.0819e-05 0)
(2.6024e-05 4.1197e-05 0)
(2.6179e-05 4.1578e-05 0)
(2.6335e-05 4.196e-05 0)
(2.649e-05 4.2344e-05 0)
(2.6645e-05 4.273e-05 0)
(2.68e-05 4.3117e-05 0)
(2.6955e-05 4.3506e-05 0)
(2.711e-05 4.3897e-05 0)
(2.7264e-05 4.4289e-05 0)
(2.7419e-05 4.4684e-05 0)
(2.7574e-05 4.508e-05 0)
(2.7729e-05 4.5477e-05 0)
(2.7884e-05 4.5877e-05 0)
(2.8038e-05 4.6278e-05 0)
(2.8193e-05 4.668e-05 0)
(2.8348e-05 4.7085e-05 0)
(2.8502e-05 4.7491e-05 0)
(2.8657e-05 4.7899e-05 0)
(2.8811e-05 4.8309e-05 0)
(2.8966e-05 4.872e-05 0)
(2.9121e-05 4.9133e-05 0)
(2.9275e-05 4.9548e-05 0)
(2.943e-05 4.9965e-05 0)
(2.9584e-05 5.0383e-05 0)
(2.9738e-05 5.0803e-05 0)
(2.9893e-05 5.1225e-05 0)
(3.0047e-05 5.1649e-05 0)
(3.0201e-05 5.2074e-05 0)
(3.0356e-05 5.2501e-05 0)
(3.051e-05 5.293e-05 0)
(3.0664e-05 5.336e-05 0)
(3.0818e-05 5.3792e-05 0)
(3.0972e-05 5.4226e-05 0)
(3.1127e-05 5.4662e-05 0)
(3.1281e-05 5.5099e-05 0)
(3.1435e-05 5.5539e-05 0)
(3.1589e-05 5.598e-05 0)
(3.1742e-05 5.6422e-05 0)
(3.1896e-05 5.6867e-05 0)
(3.205e-05 5.7313e-05 0)
(3.2204e-05 5.7761e-05 0)
(3.2358e-05 5.821e-05 0)
(3.2511e-05 5.8662e-05 0)
(3.2665e-05 5.9115e-05 0)
(3.2819e-05 5.957e-05 0)
(3.2972e-05 6.0027e-05 0)
(3.3126e-05 6.0485e-05 0)
(3.3279e-05 6.0946e-05 0)
(3.3432e-05 6.1408e-05 0)
(3.3585e-05 6.1871e-05 0)
(3.3738e-05 6.2337e-05 0)
(3.3891e-05 6.2804e-05 0)
(3.4044e-05 6.3273e-05 0)
(3.4197e-05 6.3744e-05 0)
(3.435e-05 6.4217e-05 0)
(3.4503e-05 6.4691e-05 0)
(3.4655e-05 6.5167e-05 0)
(3.4808e-05 6.5645e-05 0)
(3.496e-05 6.6125e-05 0)
(3.5113e-05 6.6606e-05 0)
(3.5265e-05 6.7089e-05 0)
(3.5417e-05 6.7574e-05 0)
(3.5569e-05 6.8061e-05 0)
(3.5721e-05 6.8549e-05 0)
(3.5873e-05 6.9039e-05 0)
(3.6025e-05 6.9531e-05 0)
(3.6176e-05 7.0025e-05 0)
(3.6328e-05 7.0521e-05 0)
(3.6479e-05 7.1018e-05 0)
(3.6631e-05 7.1517e-05 0)
(3.6782e-05 7.2018e-05 0)
(3.6933e-05 7.252e-05 0)
(3.7083e-05 7.3025e-05 0)
(3.7234e-05 7.3531e-05 0)
(3.7385e-05 7.4039e-05 0)
(3.7535e-05 7.4549e-05 0)
(3.7685e-05 7.506e-05 0)
(3.7835e-05 7.5573e-05 0)
(3.7985e-05 7.6088e-05 0)
(3.8135e-05 7.6605e-05 0)
(3.8284e-05 7.7124e-05 0)
(3.8433e-05 7.7644e-05 0)
(3.8582e-05 7.8166e-05 0)
(3.8731e-05 7.869e-05 0)
(3.888e-05 7.9216e-05 0)
(3.9028e-05 7.9743e-05 0)
(3.9176e-05 8.0272e-05 0)
(3.9324e-05 8.0803e-05 0)
(3.9472e-05 8.1336e-05 0)
(3.9619e-05 8.187e-05 0)
(3.9767e-05 8.2406e-05 0)
(3.9914e-05 8.2944e-05 0)
(4.0061e-05 8.3483e-05 0)
(4.0207e-05 8.4025e-05 0)
(4.0353e-05 8.4568e-05 0)
(4.0499e-05 8.5112e-05 0)
(4.0644e-05 8.5659e-05 0)
(4.0789e-05 8.6207e-05 0)
(4.0934e-05 8.6756e-05 0)
(4.1079e-05 8.7308e-05 0)
(4.1223e-05 8.786e-05 0)
(4.1368e-05 8.8414e-05 0)
(4.1514e-05 8.897e-05 0)
(4.1661e-05 8.9526e-05 0)
(4.1811e-05 9.0083e-05 0)
(4.1962e-05 9.0642e-05 0)
(4.2114e-05 9.1203e-05 0)
(4.2266e-05 9.1765e-05 0)
(4.2416e-05 9.233e-05 0)
(4.2564e-05 9.2898e-05 0)
(4.2709e-05 9.3468e-05 0)
(4.2851e-05 9.4041e-05 0)
(4.2991e-05 9.4616e-05 0)
(4.3129e-05 9.5193e-05 0)
(4.3266e-05 9.5772e-05 0)
(4.3402e-05 9.6352e-05 0)
(4.3536e-05 9.6935e-05 0)
(4.3669e-05 9.7519e-05 0)
(4.3802e-05 9.8105e-05 0)
(4.3934e-05 9.8692e-05 0)
(4.4067e-05 9.9281e-05 0)
(4.42e-05 9.9871e-05 0)
(4.4333e-05 0.00010046 0)
(4.4466e-05 0.00010105 0)
(4.4599e-05 0.00010165 0)
(4.4732e-05 0.00010224 0)
(4.4864e-05 0.00010284 0)
(4.4997e-05 0.00010344 0)
(4.5129e-05 0.00010404 0)
(4.5262e-05 0.00010464 0)
(4.5394e-05 0.00010524 0)
(4.5525e-05 0.00010585 0)
(4.5656e-05 0.00010646 0)
(4.5787e-05 0.00010706 0)
(4.5917e-05 0.00010767 0)
(4.6047e-05 0.00010828 0)
(4.6176e-05 0.00010889 0)
(4.6305e-05 0.00010951 0)
(4.6433e-05 0.00011012 0)
(4.656e-05 0.00011074 0)
(4.6686e-05 0.00011135 0)
(4.6812e-05 0.00011197 0)
(4.6937e-05 0.00011259 0)
(4.706e-05 0.00011321 0)
(4.7183e-05 0.00011383 0)
(4.7305e-05 0.00011446 0)
(4.7425e-05 0.00011508 0)
(4.7545e-05 0.0001157 0)
(4.7663e-05 0.00011633 0)
(4.778e-05 0.00011696 0)
(4.7895e-05 0.00011759 0)
(4.8009e-05 0.00011822 0)
(4.8122e-05 0.00011885 0)
(4.8234e-05 0.00011948 0)
(4.8343e-05 0.00012011 0)
(4.8451e-05 0.00012074 0)
(4.8558e-05 0.00012137 0)
(4.8662e-05 0.00012201 0)
(4.8765e-05 0.00012264 0)
(4.8866e-05 0.00012328 0)
(4.8966e-05 0.00012391 0)
(4.9063e-05 0.00012455 0)
(4.9158e-05 0.00012518 0)
(4.9251e-05 0.00012582 0)
(4.9343e-05 0.00012646 0)
(4.9431e-05 0.00012709 0)
(4.9518e-05 0.00012773 0)
(4.9603e-05 0.00012837 0)
(4.9685e-05 0.000129 0)
(4.9765e-05 0.00012964 0)
(4.9843e-05 0.00013028 0)
(4.9918e-05 0.00013091 0)
(4.9991e-05 0.00013155 0)
(5.0061e-05 0.00013219 0)
(5.0129e-05 0.00013282 0)
(5.0194e-05 0.00013345 0)
(5.0257e-05 0.00013409 0)
(5.0318e-05 0.00013472 0)
(5.0376e-05 0.00013535 0)
(5.0431e-05 0.00013599 0)
(5.0484e-05 0.00013662 0)
(5.0534e-05 0.00013724 0)
(5.0582e-05 0.00013787 0)
(5.0627e-05 0.0001385 0)
(5.0669e-05 0.00013912 0)
(5.071e-05 0.00013975 0)
(5.0747e-05 0.00014037 0)
(5.0783e-05 0.00014099 0)
(5.0816e-05 0.00014161 0)
(5.0846e-05 0.00014223 0)
(5.0874e-05 0.00014285 0)
(5.0901e-05 0.00014346 0)
(5.0924e-05 0.00014407 0)
(5.0946e-05 0.00014468 0)
(5.0966e-05 0.00014529 0)
(5.0984e-05 0.0001459 0)
(5.0999e-05 0.0001465 0)
(5.1013e-05 0.0001471 0)
(5.1026e-05 0.0001477 0)
(5.1036e-05 0.0001483 0)
(5.1045e-05 0.00014889 0)
(5.1053e-05 0.00014948 0)
(5.1059e-05 0.00015007 0)
(5.1064e-05 0.00015066 0)
(5.1067e-05 0.00015124 0)
(5.107e-05 0.00015183 0)
(5.1072e-05 0.00015241 0)
(5.1073e-05 0.00015298 0)
(5.1073e-05 0.00015356 0)
(5.1072e-05 0.00015413 0)
(5.1071e-05 0.0001547 0)
(5.107e-05 0.00015527 0)
(5.1068e-05 0.00015584 0)
(5.1066e-05 0.0001564 0)
(5.1064e-05 0.00015697 0)
(5.1062e-05 0.00015753 0)
(5.106e-05 0.00015809 0)
(5.1058e-05 0.00015865 0)
(5.1056e-05 0.0001592 0)
(5.1055e-05 0.00015976 0)
(5.1054e-05 0.00016032 0)
(5.1053e-05 0.00016087 0)
(5.1053e-05 0.00016143 0)
(5.1053e-05 0.00016199 0)
(5.1052e-05 0.00016254 0)
(6.4861e-08 4.9201e-08 0)
(2.0972e-07 1.5309e-07 0)
(3.6104e-07 2.5691e-07 0)
(5.13e-07 3.5719e-07 0)
(6.6516e-07 4.5487e-07 0)
(8.1849e-07 5.5187e-07 0)
(9.7184e-07 6.4927e-07 0)
(1.1239e-06 7.4755e-07 0)
(1.2748e-06 8.4702e-07 0)
(1.4246e-06 9.4795e-07 0)
(1.5737e-06 1.0506e-06 0)
(1.722e-06 1.1551e-06 0)
(1.8696e-06 1.2616e-06 0)
(2.0166e-06 1.3701e-06 0)
(2.1629e-06 1.4808e-06 0)
(2.3086e-06 1.5936e-06 0)
(2.4538e-06 1.7086e-06 0)
(2.5983e-06 1.8258e-06 0)
(2.7424e-06 1.9453e-06 0)
(2.8859e-06 2.0669e-06 0)
(3.029e-06 2.1907e-06 0)
(3.1716e-06 2.3168e-06 0)
(3.3137e-06 2.445e-06 0)
(3.4554e-06 2.5754e-06 0)
(3.5966e-06 2.7079e-06 0)
(3.7375e-06 2.8426e-06 0)
(3.8779e-06 2.9794e-06 0)
(4.018e-06 3.1184e-06 0)
(4.1576e-06 3.2594e-06 0)
(4.2969e-06 3.4025e-06 0)
(4.4359e-06 3.5476e-06 0)
(4.5745e-06 3.6947e-06 0)
(4.7128e-06 3.8439e-06 0)
(4.8507e-06 3.995e-06 0)
(4.9883e-06 4.1482e-06 0)
(5.1256e-06 4.3032e-06 0)
(5.2627e-06 4.4602e-06 0)
(5.3994e-06 4.6191e-06 0)
(5.5358e-06 4.7798e-06 0)
(5.672e-06 4.9424e-06 0)
(5.8079e-06 5.1069e-06 0)
(5.9436e-06 5.2731e-06 0)
(6.079e-06 5.4412e-06 0)
(6.2142e-06 5.611e-06 0)
(6.3491e-06 5.7826e-06 0)
(6.4838e-06 5.956e-06 0)
(6.6183e-06 6.131e-06 0)
(6.7526e-06 6.3077e-06 0)
(6.8867e-06 6.4861e-06 0)
(7.0207e-06 6.6661e-06 0)
(7.1544e-06 6.8478e-06 0)
(7.288e-06 7.0311e-06 0)
(7.4213e-06 7.216e-06 0)
(7.5546e-06 7.4025e-06 0)
(7.6877e-06 7.5905e-06 0)
(7.8206e-06 7.7801e-06 0)
(7.9534e-06 7.9712e-06 0)
(8.0861e-06 8.1637e-06 0)
(8.2187e-06 8.3578e-06 0)
(8.3512e-06 8.5533e-06 0)
(8.4835e-06 8.7503e-06 0)
(8.6158e-06 8.9487e-06 0)
(8.748e-06 9.1484e-06 0)
(8.8802e-06 9.3496e-06 0)
(9.0122e-06 9.552e-06 0)
(9.1443e-06 9.7558e-06 0)
(9.2763e-06 9.9609e-06 0)
(9.4083e-06 1.0167e-05 0)
(9.5402e-06 1.0375e-05 0)
(9.6722e-06 1.0584e-05 0)
(9.8042e-06 1.0794e-05 0)
(9.9362e-06 1.1006e-05 0)
(1.0068e-05 1.1218e-05 0)
(1.02e-05 1.1432e-05 0)
(1.0332e-05 1.1647e-05 0)
(1.0465e-05 1.1864e-05 0)
(1.0597e-05 1.2081e-05 0)
(1.0729e-05 1.2299e-05 0)
(1.0862e-05 1.2519e-05 0)
(1.0995e-05 1.274e-05 0)
(1.1127e-05 1.2962e-05 0)
(1.126e-05 1.3185e-05 0)
(1.1393e-05 1.3409e-05 0)
(1.1527e-05 1.3634e-05 0)
(1.1661e-05 1.3861e-05 0)
(1.1795e-05 1.4088e-05 0)
(1.1929e-05 1.4316e-05 0)
(1.2064e-05 1.4545e-05 0)
(1.2201e-05 1.4775e-05 0)
(1.2337e-05 1.5005e-05 0)
(1.2475e-05 1.5235e-05 0)
(1.2613e-05 1.5466e-05 0)
(1.2752e-05 1.5697e-05 0)
(1.2892e-05 1.5929e-05 0)
(1.3035e-05 1.6162e-05 0)
(1.318e-05 1.6394e-05 0)
(1.3327e-05 1.6627e-05 0)
(1.3477e-05 1.6861e-05 0)
(1.363e-05 1.7096e-05 0)
(1.3785e-05 1.7332e-05 0)
(1.3943e-05 1.7569e-05 0)
(1.4103e-05 1.781e-05 0)
(1.4264e-05 1.8053e-05 0)
(1.4426e-05 1.8299e-05 0)
(1.4587e-05 1.8549e-05 0)
(1.4749e-05 1.8802e-05 0)
(1.491e-05 1.9058e-05 0)
(1.507e-05 1.9316e-05 0)
(1.523e-05 1.9576e-05 0)
(1.539e-05 1.9839e-05 0)
(1.555e-05 2.0104e-05 0)
(1.571e-05 2.037e-05 0)
(1.5869e-05 2.0639e-05 0)
(1.6028e-05 2.091e-05 0)
(1.6186e-05 2.1183e-05 0)
(1.6345e-05 2.1457e-05 0)
(1.6503e-05 2.1734e-05 0)
(1.6661e-05 2.2012e-05 0)
(1.6819e-05 2.2292e-05 0)
(1.6977e-05 2.2574e-05 0)
(1.7134e-05 2.2858e-05 0)
(1.7291e-05 2.3144e-05 0)
(1.7449e-05 2.3432e-05 0)
(1.7606e-05 2.3721e-05 0)
(1.7762e-05 2.4012e-05 0)
(1.7919e-05 2.4305e-05 0)
(1.8076e-05 2.46e-05 0)
(1.8232e-05 2.4896e-05 0)
(1.8388e-05 2.5194e-05 0)
(1.8544e-05 2.5494e-05 0)
(1.87e-05 2.5796e-05 0)
(1.8856e-05 2.6099e-05 0)
(1.9012e-05 2.6405e-05 0)
(1.9168e-05 2.6712e-05 0)
(1.9324e-05 2.702e-05 0)
(1.9479e-05 2.7331e-05 0)
(1.9634e-05 2.7643e-05 0)
(1.979e-05 2.7957e-05 0)
(1.9945e-05 2.8272e-05 0)
(2.01e-05 2.859e-05 0)
(2.0255e-05 2.8909e-05 0)
(2.041e-05 2.923e-05 0)
(2.0565e-05 2.9552e-05 0)
(2.072e-05 2.9876e-05 0)
(2.0875e-05 3.0202e-05 0)
(2.103e-05 3.053e-05 0)
(2.1184e-05 3.0859e-05 0)
(2.1339e-05 3.119e-05 0)
(2.1494e-05 3.1523e-05 0)
(2.1648e-05 3.1857e-05 0)
(2.1802e-05 3.2193e-05 0)
(2.1957e-05 3.2531e-05 0)
(2.2111e-05 3.2871e-05 0)
(2.2265e-05 3.3212e-05 0)
(2.242e-05 3.3555e-05 0)
(2.2574e-05 3.39e-05 0)
(2.2728e-05 3.4246e-05 0)
(2.2882e-05 3.4594e-05 0)
(2.3036e-05 3.4944e-05 0)
(2.319e-05 3.5295e-05 0)
(2.3344e-05 3.5649e-05 0)
(2.3498e-05 3.6004e-05 0)
(2.3652e-05 3.636e-05 0)
(2.3806e-05 3.6718e-05 0)
(2.396e-05 3.7078e-05 0)
(2.4113e-05 3.744e-05 0)
(2.4267e-05 3.7804e-05 0)
(2.4421e-05 3.8169e-05 0)
(2.4575e-05 3.8536e-05 0)
(2.4728e-05 3.8904e-05 0)
(2.4882e-05 3.9274e-05 0)
(2.5035e-05 3.9646e-05 0)
(2.5189e-05 4.002e-05 0)
(2.5342e-05 4.0395e-05 0)
(2.5496e-05 4.0772e-05 0)
(2.5649e-05 4.1151e-05 0)
(2.5803e-05 4.1532e-05 0)
(2.5956e-05 4.1914e-05 0)
(2.611e-05 4.2298e-05 0)
(2.6263e-05 4.2683e-05 0)
(2.6416e-05 4.3071e-05 0)
(2.6569e-05 4.346e-05 0)
(2.6723e-05 4.3851e-05 0)
(2.6876e-05 4.4243e-05 0)
(2.7029e-05 4.4637e-05 0)
(2.7182e-05 4.5033e-05 0)
(2.7335e-05 4.5431e-05 0)
(2.7488e-05 4.583e-05 0)
(2.7641e-05 4.6232e-05 0)
(2.7794e-05 4.6634e-05 0)
(2.7947e-05 4.7039e-05 0)
(2.81e-05 4.7445e-05 0)
(2.8253e-05 4.7853e-05 0)
(2.8406e-05 4.8263e-05 0)
(2.8559e-05 4.8674e-05 0)
(2.8712e-05 4.9087e-05 0)
(2.8864e-05 4.9502e-05 0)
(2.9017e-05 4.9919e-05 0)
(2.917e-05 5.0337e-05 0)
(2.9323e-05 5.0757e-05 0)
(2.9475e-05 5.1179e-05 0)
(2.9628e-05 5.1603e-05 0)
(2.978e-05 5.2028e-05 0)
(2.9933e-05 5.2455e-05 0)
(3.0086e-05 5.2884e-05 0)
(3.0238e-05 5.3314e-05 0)
(3.0391e-05 5.3746e-05 0)
(3.0543e-05 5.418e-05 0)
(3.0695e-05 5.4616e-05 0)
(3.0848e-05 5.5053e-05 0)
(3.1e-05 5.5493e-05 0)
(3.1152e-05 5.5934e-05 0)
(3.1304e-05 5.6376e-05 0)
(3.1457e-05 5.6821e-05 0)
(3.1609e-05 5.7267e-05 0)
(3.1761e-05 5.7715e-05 0)
(3.1913e-05 5.8165e-05 0)
(3.2065e-05 5.8616e-05 0)
(3.2217e-05 5.9069e-05 0)
(3.2369e-05 5.9524e-05 0)
(3.252e-05 5.9981e-05 0)
(3.2672e-05 6.044e-05 0)
(3.2824e-05 6.09e-05 0)
(3.2975e-05 6.1362e-05 0)
(3.3127e-05 6.1826e-05 0)
(3.3278e-05 6.2291e-05 0)
(3.3429e-05 6.2759e-05 0)
(3.358e-05 6.3228e-05 0)
(3.3732e-05 6.3699e-05 0)
(3.3883e-05 6.4171e-05 0)
(3.4034e-05 6.4645e-05 0)
(3.4185e-05 6.5122e-05 0)
(3.4335e-05 6.5599e-05 0)
(3.4486e-05 6.6079e-05 0)
(3.4637e-05 6.656e-05 0)
(3.4787e-05 6.7044e-05 0)
(3.4938e-05 6.7529e-05 0)
(3.5088e-05 6.8015e-05 0)
(3.5238e-05 6.8504e-05 0)
(3.5389e-05 6.8994e-05 0)
(3.5539e-05 6.9486e-05 0)
(3.5688e-05 6.998e-05 0)
(3.5838e-05 7.0475e-05 0)
(3.5988e-05 7.0973e-05 0)
(3.6137e-05 7.1472e-05 0)
(3.6287e-05 7.1973e-05 0)
(3.6436e-05 7.2475e-05 0)
(3.6585e-05 7.298e-05 0)
(3.6734e-05 7.3486e-05 0)
(3.6883e-05 7.3994e-05 0)
(3.7032e-05 7.4504e-05 0)
(3.718e-05 7.5015e-05 0)
(3.7328e-05 7.5529e-05 0)
(3.7477e-05 7.6044e-05 0)
(3.7624e-05 7.6561e-05 0)
(3.7772e-05 7.7079e-05 0)
(3.792e-05 7.76e-05 0)
(3.8067e-05 7.8122e-05 0)
(3.8214e-05 7.8646e-05 0)
(3.8361e-05 7.9171e-05 0)
(3.8508e-05 7.9699e-05 0)
(3.8654e-05 8.0228e-05 0)
(3.88e-05 8.0759e-05 0)
(3.8947e-05 8.1292e-05 0)
(3.9092e-05 8.1826e-05 0)
(3.9238e-05 8.2362e-05 0)
(3.9383e-05 8.29e-05 0)
(3.9528e-05 8.344e-05 0)
(3.9673e-05 8.3981e-05 0)
(3.9818e-05 8.4524e-05 0)
(3.9962e-05 8.5069e-05 0)
(4.0105e-05 8.5615e-05 0)
(4.0249e-05 8.6164e-05 0)
(4.0392e-05 8.6713e-05 0)
(4.0535e-05 8.7264e-05 0)
(4.0679e-05 8.7817e-05 0)
(4.0823e-05 8.8371e-05 0)
(4.0968e-05 8.8926e-05 0)
(4.1115e-05 8.9481e-05 0)
(4.1264e-05 9.0038e-05 0)
(4.1414e-05 9.0597e-05 0)
(4.1564e-05 9.1157e-05 0)
(4.1713e-05 9.172e-05 0)
(4.186e-05 9.2286e-05 0)
(4.2005e-05 9.2854e-05 0)
(4.2147e-05 9.3425e-05 0)
(4.2287e-05 9.3999e-05 0)
(4.2424e-05 9.4574e-05 0)
(4.2561e-05 9.5152e-05 0)
(4.2696e-05 9.5731e-05 0)
(4.283e-05 9.6312e-05 0)
(4.2962e-05 9.6895e-05 0)
(4.3094e-05 9.748e-05 0)
(4.3225e-05 9.8065e-05 0)
(4.3357e-05 9.8653e-05 0)
(4.3488e-05 9.9241e-05 0)
(4.362e-05 9.9831e-05 0)
(4.3752e-05 0.00010042 0)
(4.3884e-05 0.00010102 0)
(4.4016e-05 0.00010161 0)
(4.4147e-05 0.00010221 0)
(4.4279e-05 0.0001028 0)
(4.441e-05 0.0001034 0)
(4.4541e-05 0.000104 0)
(4.4672e-05 0.0001046 0)
(4.4803e-05 0.00010521 0)
(4.4933e-05 0.00010581 0)
(4.5063e-05 0.00010642 0)
(4.5193e-05 0.00010702 0)
(4.5322e-05 0.00010763 0)
(4.545e-05 0.00010824 0)
(4.5578e-05 0.00010885 0)
(4.5706e-05 0.00010947 0)
(4.5832e-05 0.00011008 0)
(4.5958e-05 0.0001107 0)
(4.6083e-05 0.00011131 0)
(4.6208e-05 0.00011193 0)
(4.6331e-05 0.00011255 0)
(4.6454e-05 0.00011317 0)
(4.6576e-05 0.0001138 0)
(4.6696e-05 0.00011442 0)
(4.6816e-05 0.00011504 0)
(4.6934e-05 0.00011567 0)
(4.7051e-05 0.0001163 0)
(4.7167e-05 0.00011692 0)
(4.7282e-05 0.00011755 0)
(4.7396e-05 0.00011818 0)
(4.7508e-05 0.00011881 0)
(4.7618e-05 0.00011944 0)
(4.7727e-05 0.00012008 0)
(4.7834e-05 0.00012071 0)