/*--------------------------------*- C++ -*----------------------------------*\
| =========                 |                                                 |
| \\      /  F ield         | OpenFOAM: The Open Source CFD Toolbox           |
|  \\    /   O peration     | Version:  5.x                                   |
|   \\  /    A nd           | Web:      www.OpenFOAM.org                      |
|    \\/     M anipulation  |                                                 |
\*---------------------------------------------------------------------------*/
FoamFile
{
    version     2.0;
    format      ascii;
    class       volSymmTensorField;
    location    "10";
    object      sigmaD;
}
// * * * * * * * * * * * * * * * * * * * * * * * * * * * * * * * * * * * * * //

dimensions      [0 2 -2 0 0 0 0];

internalField   nonuniform List<symmTensor> 
80000
(
(60901 4342.5 0 3235 0 14801)
(46866 1776 0 178.43 0 10856)
(42014 931.37 0 -109.25 0 9670.4)
(39202 647.09 0 -32.298 0 9039.2)
(36964 508.06 0 30.653 0 8537.1)
(35232 411.13 0 55.764 0 8143.4)
(34131 340.5 0 52.295 0 7888.3)
(33112 288.53 0 41.97 0 7650.8)
(32200 250.58 0 37.398 0 7439.4)
(31398 221.69 0 35.779 0 7253.9)
(30687 198.53 0 34.646 0 7089.7)
(30052 179.42 0 33.373 0 6942.7)
(29477 163.45 0 32.046 0 6809.7)
(28951 149.99 0 30.836 0 6688.1)
(28466 138.54 0 29.785 0 6576)
(28017 128.69 0 28.86 0 6472.2)
(27599 120.13 0 28.021 0 6375.5)
(27208 112.6 0 27.245 0 6285.1)
(26841 105.93 0 26.518 0 6200.1)
(26494 99.972 0 25.834 0 6120)
(26167 94.621 0 25.188 0 6044.3)
(25856 89.785 0 24.577 0 5972.5)
(25561 85.393 0 23.996 0 5904.3)
(25280 81.385 0 23.444 0 5839.3)
(25012 77.71 0 22.918 0 5777.3)
(24756 74.329 0 22.416 0 5718.1)
(24511 71.207 0 21.936 0 5661.3)
(24275 68.313 0 21.477 0 5606.9)
(24049 65.622 0 21.037 0 5554.7)
(23832 63.113 0 20.614 0 5504.5)
(23623 60.766 0 20.208 0 5456.2)
(23422 58.564 0 19.817 0 5409.6)
(23228 56.494 0 19.441 0 5364.7)
(23040 54.542 0 19.077 0 5321.4)
(22859 52.697 0 18.725 0 5279.5)
(22684 50.946 0 18.385 0 5239.1)
(22515 49.281 0 18.055 0 5199.9)
(22351 47.692 0 17.735 0 5162.1)
(22193 46.169 0 17.425 0 5125.4)
(22039 44.703 0 17.124 0 5089.9)
(21890 43.287 0 16.833 0 5055.5)
(21746 41.913 0 16.55 0 5022.2)
(21607 40.576 0 16.275 0 4990)
(21472 39.273 0 16.008 0 4958.8)
(21341 38.001 0 15.748 0 4928.6)
(21215 36.762 0 15.494 0 4899.4)
(21093 35.556 0 15.245 0 4871.1)
(20975 34.385 0 15.002 0 4843.8)
(20860 33.251 0 14.764 0 4817.4)
(20750 32.156 0 14.53 0 4791.8)
(20643 31.098 0 14.301 0 4767.1)
(20540 30.074 0 14.077 0 4743.2)
(20440 29.081 0 13.857 0 4720.1)
(20343 28.112 0 13.641 0 4697.7)
(20250 27.161 0 13.429 0 4676.1)
(20159 26.219 0 13.22 0 4655.2)
(20072 25.278 0 13.015 0 4635)
(19988 24.329 0 12.815 0 4615.6)
(19907 23.359 0 12.62 0 4596.9)
(19830 22.358 0 12.435 0 4579)
(19756 21.312 0 12.26 0 4561.9)
(19686 20.214 0 12.098 0 4545.6)
(19619 19.061 0 11.946 0 4530.2)
(19557 17.863 0 11.797 0 4515.8)
(19498 16.644 0 11.642 0 4502.3)
(19444 15.442 0 11.473 0 4489.8)
(19394 14.296 0 11.288 0 4478.3)
(19348 13.234 0 11.09 0 4467.5)
(19305 12.263 0 10.892 0 4457.6)
(19266 11.355 0 10.709 0 4448.4)
(19229 10.448 0 10.564 0 4439.9)
(19195 9.4513 0 10.484 0 4432.1)
(19165 8.2594 0 10.488 0 4425.1)
(19139 6.7929 0 10.556 0 4419.2)
(19120 5.0569 0 10.615 0 4414.7)
(19107 3.175 0 10.588 0 4411.7)
(19101 1.3394 0 10.454 0 4410.3)
(19101 -0.29271 0 10.247 0 4410.3)
(19106 -1.6623 0 10.034 0 4411.5)
(19116 -2.8289 0 9.9281 0 4413.6)
(19129 -3.9759 0 9.9321 0 4416.6)
(19145 -5.2584 0 9.836 0 4420.4)
(19166 -6.6756 0 9.6353 0 4425.1)
(19191 -8.1573 0 9.3841 0 4431)
(19223 -9.6463 0 8.5599 0 4438.1)
(19262 -11.29 0 7.2363 0 4446.8)
(19308 -12.696 0 6.4371 0 4457.1)
(19360 -13.16 0 6.2262 0 4469.2)
(19422 -12.625 0 5.7232 0 4483.2)
(19499 -13.16 0 4.8297 0 4500.8)
(19600 -13.071 0 3.2437 0 4523.8)
(19716 -8.0234 0 -1.3972 0 4549.5)
(19889 3.022 0 -7.4826 0 4588.1)
(19921 20.27 0 -9.7491 0 4595)
(19882 42.71 0 -11.382 0 4585.6)
(19861 67.332 0 -13.672 0 4580.3)
(19593 88.762 0 -10.121 0 4519.2)
(19269 106.57 0 -7.0714 0 4445.1)
(19066 126.94 0 -8.0138 0 4398.1)
(18556 143.27 0 -1.8413 0 4281.8)
(17997 148.93 0 10.005 0 4155.4)
(17460 141.41 0 19.358 0 4033.8)
(16974 123.39 0 26.188 0 3923.2)
(16500 102.05 0 28.319 0 3814.2)
(16290 85.792 0 23.957 0 3764.8)
(15998 75.877 0 19.495 0 3696.3)
(15737 68.913 0 17.877 0 3635.7)
(15503 63.136 0 16.494 0 3581.5)
(15292 58.102 0 15.139 0 3532.5)
(15100 53.746 0 13.956 0 3487.8)
(14922 50.022 0 13.003 0 3446.6)
(14758 46.846 0 12.256 0 3408.4)
(14603 44.12 0 11.665 0 3372.7)
(14458 41.76 0 11.182 0 3339.1)
(14321 39.697 0 10.776 0 3307.3)
(14190 37.879 0 10.428 0 3277.1)
(14066 36.266 0 10.126 0 3248.3)
(13947 34.828 0 9.8601 0 3220.7)
(13832 33.537 0 9.6249 0 3194.3)
(13722 32.375 0 9.4148 0 3168.8)
(13616 31.323 0 9.2256 0 3144.2)
(13513 30.368 0 9.0542 0 3120.5)
(13413 29.497 0 8.8979 0 3097.4)
(13316 28.7 0 8.7546 0 3075)
(13222 27.969 0 8.6225 0 3053.3)
(13130 27.296 0 8.5001 0 3032.1)
(13041 26.676 0 8.3863 0 3011.4)
(12953 26.102 0 8.2799 0 2991.1)
(12868 25.57 0 8.1802 0 2971.4)
(12784 25.076 0 8.0863 0 2952)
(12702 24.616 0 7.9976 0 2933)
(12621 24.188 0 7.9137 0 2914.3)
(12542 23.787 0 7.8339 0 2896)
(12464 23.412 0 7.7579 0 2878)
(12387 23.061 0 7.6853 0 2860.3)
(12311 22.732 0 7.6158 0 2842.8)
(12237 22.422 0 7.5492 0 2825.6)
(12163 22.13 0 7.4851 0 2808.6)
(12091 21.856 0 7.4234 0 2791.9)
(12019 21.597 0 7.3638 0 2775.3)
(11948 21.352 0 7.3062 0 2759)
(11878 21.121 0 7.2505 0 2742.9)
(11809 20.903 0 7.1964 0 2726.9)
(11741 20.696 0 7.1439 0 2711.1)
(11673 20.5 0 7.0929 0 2695.4)
(11606 20.313 0 7.0432 0 2679.9)
(11539 20.137 0 6.9947 0 2664.5)
(11473 19.969 0 6.9474 0 2649.3)
(11408 19.809 0 6.9013 0 2634.2)
(11343 19.657 0 6.8561 0 2619.3)
(11279 19.513 0 6.8119 0 2604.4)
(11215 19.375 0 6.7685 0 2589.7)
(11152 19.244 0 6.726 0 2575)
(11089 19.118 0 6.6843 0 2560.5)
(11026 18.999 0 6.6433 0 2546)
(10964 18.885 0 6.603 0 2531.7)
(10902 18.776 0 6.5633 0 2517.4)
(10841 18.671 0 6.5243 0 2503.2)
(10780 18.572 0 6.4858 0 2489.1)
(10719 18.477 0 6.4478 0 2475.1)
(10659 18.386 0 6.4103 0 2461.1)
(10598 18.3 0 6.3733 0 2447.3)
(10539 18.217 0 6.3368 0 2433.4)
(10479 18.138 0 6.3008 0 2419.7)
(10420 18.062 0 6.2651 0 2406)
(10361 17.99 0 6.2296 0 2392.4)
(10302 17.921 0 6.1941 0 2378.8)
(10243 17.856 0 6.1592 0 2365.3)
(10185 17.794 0 6.1254 0 2351.8)
(10127 17.735 0 6.0925 0 2338.4)
(10069 17.678 0 6.0595 0 2325)
(10011 17.624 0 6.0254 0 2311.6)
(9953.5 17.573 0 5.9916 0 2298.3)
(9896.1 17.525 0 5.9597 0 2285.1)
(9838.8 17.478 0 5.9304 0 2271.9)
(9781.6 17.435 0 5.9036 0 2258.7)
(9724.5 17.389 0 5.8786 0 2245.5)
(9667.6 17.328 0 5.8587 0 2232.3)
(9610.7 17.244 0 5.8487 0 2219.2)
(9554.1 17.133 0 5.8391 0 2206.1)
(9498.1 17.003 0 5.811 0 2193.2)
(9442.7 16.887 0 5.7599 0 2180.4)
(9387.8 16.805 0 5.6935 0 2167.7)
(9333.2 16.766 0 5.6263 0 2155.1)
(9278.4 16.763 0 5.5786 0 2142.5)
(9223.6 16.767 0 5.5512 0 2129.8)
(9168.6 16.758 0 5.5278 0 2117.1)
(9114 16.739 0 5.4987 0 2104.5)
(9059.4 16.72 0 5.4673 0 2091.9)
(9004.8 16.704 0 5.4384 0 2079.3)
(8950.3 16.69 0 5.4108 0 2066.7)
(8895.8 16.676 0 5.3832 0 2054.1)
(8841.3 16.661 0 5.355 0 2041.5)
(8786.9 16.647 0 5.3265 0 2029)
(8732.5 16.633 0 5.2976 0 2016.4)
(8678.2 16.618 0 5.2686 0 2003.9)
(8623.9 16.604 0 5.2396 0 1991.3)
(8569.7 16.591 0 5.2105 0 1978.8)
(8515.5 16.577 0 5.1814 0 1966.3)
(8461.4 16.564 0 5.1523 0 1953.8)
(8407.3 16.552 0 5.1231 0 1941.3)
(8353.2 16.539 0 5.0939 0 1928.8)
(8299.2 16.527 0 5.0647 0 1916.4)
(8245.2 16.515 0 5.0355 0 1903.9)
(8191.3 16.504 0 5.0061 0 1891.4)
(8137.3 16.493 0 4.9767 0 1879)
(8083.5 16.483 0 4.9472 0 1866.6)
(8029.6 16.473 0 4.9176 0 1854.1)
(7975.8 16.464 0 4.8877 0 1841.7)
(7922 16.456 0 4.8577 0 1829.3)
(7868.2 16.449 0 4.8277 0 1816.9)
(7814.5 16.442 0 4.7982 0 1804.5)
(7760.8 16.435 0 4.7693 0 1792.1)
(7707.1 16.429 0 4.7403 0 1779.7)
(7653.4 16.424 0 4.7109 0 1767.3)
(7599.8 16.423 0 4.6811 0 1754.9)
(7546.1 16.425 0 4.6523 0 1742.5)
(7492.4 16.43 0 4.627 0 1730.1)
(7438.6 16.429 0 4.6107 0 1717.7)
(7384.6 16.406 0 4.6014 0 1705.2)
(7330.9 16.353 0 4.5969 0 1692.8)
(7277 16.265 0 4.5866 0 1680.4)
(7224.1 16.166 0 4.549 0 1668.1)
(7171.3 16.095 0 4.4859 0 1656)
(7119.1 16.07 0 4.4196 0 1643.9)
(7066.4 16.081 0 4.3633 0 1631.7)
(7014.1 16.112 0 4.3245 0 1619.6)
(6960.9 16.133 0 4.3026 0 1607.4)
(6908.2 16.14 0 4.279 0 1595.2)
(6855.5 16.142 0 4.2472 0 1583)
(6802.8 16.146 0 4.2172 0 1570.8)
(6750 16.152 0 4.1891 0 1558.6)
(6697.1 16.157 0 4.1614 0 1546.4)
(6644.3 16.163 0 4.1333 0 1534.2)
(6591.4 16.167 0 4.1046 0 1522)
(6538.5 16.171 0 4.0754 0 1509.8)
(6485.5 16.175 0 4.046 0 1497.6)
(6432.6 16.179 0 4.0164 0 1485.4)
(6379.6 16.182 0 3.9867 0 1473.1)
(6326.6 16.184 0 3.9568 0 1460.9)
(6273.7 16.187 0 3.9266 0 1448.7)
(6220.6 16.19 0 3.8962 0 1436.4)
(6167.6 16.193 0 3.8653 0 1424.2)
(6114.6 16.197 0 3.8346 0 1411.9)
(6061.5 16.203 0 3.805 0 1399.7)
(6008.5 16.211 0 3.7758 0 1387.4)
(5955.4 16.222 0 3.7464 0 1375.2)
(5902.2 16.236 0 3.7188 0 1362.9)
(5848.9 16.241 0 3.6996 0 1350.6)
(5795.4 16.218 0 3.697 0 1338.3)
(5741.7 16.155 0 3.6933 0 1325.9)
(5688.9 16.075 0 3.6607 0 1313.7)
(5636.3 16.01 0 3.6012 0 1301.5)
(5584.1 15.988 0 3.5309 0 1289.4)
(5531.6 16.008 0 3.4677 0 1277.3)
(5479.1 16.043 0 3.4281 0 1265.2)
(5426 16.067 0 3.4058 0 1252.9)
(5373.3 16.073 0 3.3767 0 1240.8)
(5320.6 16.075 0 3.3387 0 1228.6)
(5267.9 16.079 0 3.3024 0 1216.4)
(5215.1 16.086 0 3.2685 0 1204.2)
(5162.3 16.096 0 3.2367 0 1192)
(5109.5 16.107 0 3.2058 0 1179.8)
(5056.6 16.122 0 3.1713 0 1167.6)
(5003.6 16.14 0 3.1319 0 1155.4)
(4950.6 16.157 0 3.1015 0 1143.2)
(4897 16.148 0 3.099 0 1130.8)
(4843.1 16.073 0 3.0999 0 1118.3)
(4790.4 15.953 0 3.0662 0 1106.2)
(4737.9 15.829 0 3.0038 0 1094.1)
(4686.3 15.724 0 2.9291 0 1082.1)
(4634.7 15.647 0 2.8552 0 1070.2)
(4583.4 15.578 0 2.7955 0 1058.4)
(4531.9 15.473 0 2.7167 0 1046.4)
(4482.3 15.329 0 2.4665 0 1034.9)
(4437.7 15.438 0 1.9324 0 1024.5)
(4393.7 16.178 0 1.3121 0 1014.2)
(4344.8 17.47 0 1.0075 0 1002.9)
(4285.7 18.749 0 1.2001 0 989.28)
(4223 19.594 0 1.8233 0 974.97)
(4153.1 19.485 0 2.6269 0 959.02)
(4092 18.579 0 3.2419 0 945.06)
(4032 17.454 0 3.685 0 931.32)
(3972.6 16.253 0 3.9729 0 917.67)
(3921.2 15.248 0 3.9377 0 905.81)
(3869.9 14.634 0 3.6076 0 893.88)
(3823.7 14.59 0 3.1804 0 883.13)
(3770.9 14.94 0 2.9774 0 870.9)
(3714.2 15.163 0 3.065 0 857.84)
(3657.8 14.982 0 3.0962 0 844.83)
(3608.4 14.646 0 2.7933 0 833.35)
(3563.1 14.575 0 2.295 0 822.79)
(3515.1 14.898 0 1.9049 0 811.61)
(3465.6 15.425 0 1.7718 0 800.17)
(3410.4 15.804 0 1.8189 0 787.44)
(3359 15.976 0 1.8169 0 775.58)
(3307.5 16.06 0 1.7448 0 763.66)
(3255.7 16.124 0 1.7017 0 751.7)
(3203.6 16.182 0 1.6852 0 739.67)
(3151.2 16.234 0 1.6791 0 727.59)
(3098.6 16.274 0 1.6733 0 715.44)
(3045.7 16.299 0 1.664 0 703.24)
(2992.7 16.309 0 1.6501 0 691)
(2939.6 16.304 0 1.6319 0 678.74)
(2886.4 16.286 0 1.6097 0 666.47)
(2833.2 16.255 0 1.5843 0 654.19)
(2780.1 16.213 0 1.5561 0 641.92)
(2727 16.161 0 1.5256 0 629.67)
(2674.1 16.099 0 1.493 0 617.44)
(2621.3 16.028 0 1.4587 0 605.25)
(2568.6 15.95 0 1.423 0 593.09)
(2516.2 15.865 0 1.3859 0 580.98)
(2464 15.774 0 1.3478 0 568.92)
(2412 15.676 0 1.3088 0 556.92)
(2360.3 15.574 0 1.2689 0 544.98)
(2308.9 15.466 0 1.2283 0 533.1)
(2257.7 15.354 0 1.1871 0 521.29)
(2206.9 15.239 0 1.1454 0 509.55)
(2156.4 15.119 0 1.1031 0 497.89)
(2106.3 14.996 0 1.0605 0 486.31)
(2056.5 14.87 0 1.0175 0 474.81)
(2007 14.741 0 0.97411 0 463.39)
(1958 14.61 0 0.93047 0 452.05)
(1909.3 14.476 0 0.88659 0 440.81)
(1861 14.34 0 0.84247 0 429.65)
(1813.1 14.203 0 0.79815 0 418.59)
(1765.6 14.063 0 0.75365 0 407.62)
(1718.5 13.922 0 0.70899 0 396.74)
(1671.8 13.78 0 0.66419 0 385.96)
(1625.6 13.636 0 0.61925 0 375.27)
(1579.7 13.492 0 0.57419 0 364.69)
(1534.3 13.346 0 0.52903 0 354.2)
(1489.4 13.199 0 0.48376 0 343.82)
(1444.9 13.052 0 0.4384 0 333.53)
(1400.8 12.904 0 0.39296 0 323.35)
(1357.2 12.755 0 0.34744 0 313.27)
(1314 12.605 0 0.30184 0 303.3)
(1271.3 12.455 0 0.25619 0 293.43)
(1229 12.305 0 0.21048 0 283.67)
(1187.2 12.154 0 0.16472 0 274.01)
(1145.9 12.002 0 0.11892 0 264.46)
(1105 11.85 0 0.073089 0 255.02)
(1064.6 11.697 0 0.027237 0 245.69)
(1024.7 11.543 0 -0.018619 0 236.47)
(985.29 11.389 0 -0.064469 0 227.36)
(946.35 11.233 0 -0.11029 0 218.36)
(907.9 11.077 0 -0.15606 0 209.48)
(869.95 10.919 0 -0.20177 0 200.71)
(832.5 10.76 0 -0.24737 0 192.06)
(795.57 10.6 0 -0.29284 0 183.53)
(759.16 10.437 0 -0.33814 0 175.11)
(723.28 10.273 0 -0.38322 0 166.82)
(687.94 10.106 0 -0.42805 0 158.66)
(653.15 9.9358 0 -0.47256 0 150.62)
(618.92 9.7631 0 -0.51669 0 142.71)
(585.28 9.587 0 -0.56038 0 134.93)
(552.22 9.4071 0 -0.60354 0 127.3)
(519.78 9.2231 0 -0.6461 0 119.8)
(487.96 9.0345 0 -0.68796 0 112.45)
(456.79 8.8408 0 -0.72902 0 105.25)
(426.29 8.6418 0 -0.76916 0 98.197)
(396.47 8.4368 0 -0.80826 0 91.307)
(367.37 8.2254 0 -0.84619 0 84.582)
(339.01 8.0073 0 -0.88281 0 78.028)
(311.41 7.7819 0 -0.91796 0 71.651)
(284.6 7.5487 0 -0.95148 0 65.457)
(258.62 7.3074 0 -0.98318 0 59.454)
(233.49 7.0576 0 -1.0129 0 53.649)
(209.25 6.7989 0 -1.0404 0 48.049)
(185.93 6.531 0 -1.0655 0 42.662)
(163.57 6.2535 0 -1.0879 0 37.496)
(142.2 5.9664 0 -1.1075 0 32.56)
(121.86 5.6695 0 -1.124 0 27.861)
(102.58 5.3627 0 -1.1371 0 23.409)
(84.4 5.0461 0 -1.1466 0 19.212)
(67.359 4.7198 0 -1.1522 0 15.279)
(51.491 4.3841 0 -1.1536 0 11.616)
(36.828 4.0395 0 -1.1505 0 8.2333)
(23.404 3.6865 0 -1.1426 0 5.1372)
(11.248 3.3259 0 -1.1297 0 2.335)
(0.38708 2.9588 0 -1.1114 0 -0.16715)
(-9.1555 2.5863 0 -1.0874 0 -2.3638)
(-17.362 2.2099 0 -1.0576 0 -4.2506)
(-24.219 1.8316 0 -1.0215 0 -5.8248)
(-29.722 1.4534 0 -0.97899 0 -7.0849)
(-33.875 1.078 0 -0.9299 0 -8.0318)
(-36.689 0.70866 0 -0.8741 0 -8.6684)
(-38.191 0.34922 0 -0.8116 0 -9.0007)
(-38.423 0.0043628 0 -0.74264 0 -9.0383)
(-37.444 -0.32022 0 -0.66772 0 -8.7951)
(-35.337 -0.6176 0 -0.58782 0 -8.2904)
(-32.213 -0.87952 0 -0.50437 0 -7.5502)
(-28.218 -1.0965 0 -0.41881 0 -6.6084)
(-23.55 -1.2576 0 -0.3328 0 -5.5114)
(-18.447 -1.3454 0 -0.25333 0 -4.3154)
(-13.119 -1.3243 0 -0.19768 0 -3.073)
(-8.1599 -1.1889 0 -0.1867 0 -1.9261)
(-4.0721 -0.95015 0 -0.22678 0 -0.99204)
(-1.223 -0.6036 0 -0.27843 0 -0.34648)
(-0.045834 -0.24829 0 -0.0855 0 -0.030308)
(41341 9555.9 0 6016.4 0 10929)
(43120 6358.6 0 1806.4 0 10368)
(41016 4313.1 0 597.33 0 9603.1)
(38822 3116.2 0 334.15 0 9035.9)
(36804 2396.4 0 299.93 0 8562.6)
(35226 1935.7 0 288.95 0 8195.8)
(34186 1626.2 0 231.63 0 7942.5)
(33200 1394.3 0 163.92 0 7699.5)
(32307 1215.4 0 121.92 0 7483.6)
(31516 1075.3 0 97.707 0 7295.6)
(30815 963.07 0 81.39 0 7129.8)
(30185 871.22 0 68.528 0 6981.7)
(29615 794.74 0 57.874 0 6847.5)
(29092 730.17 0 49.224 0 6724.8)
(28609 675.04 0 42.344 0 6611.9)
(28162 627.46 0 36.86 0 6507.4)
(27745 585.99 0 32.422 0 6410.2)
(27355 549.5 0 28.768 0 6319.3)
(26989 517.14 0 25.716 0 6234.1)
(26643 488.22 0 23.137 0 6153.8)
(26317 462.23 0 20.937 0 6078)
(26008 438.72 0 19.044 0 6006.2)
(25714 417.34 0 17.404 0 5938)
(25434 397.83 0 15.973 0 5873.2)
(25168 379.93 0 14.717 0 5811.3)
(24913 363.45 0 13.611 0 5752.2)
(24669 348.22 0 12.63 0 5695.7)
(24435 334.1 0 11.759 0 5641.5)
(24210 320.96 0 10.981 0 5589.5)
(23994 308.7 0 10.284 0 5539.5)
(23787 297.23 0 9.6569 0 5491.4)
(23586 286.46 0 9.0919 0 5445.1)
(23394 276.33 0 8.5816 0 5400.5)
(23208 266.77 0 8.1206 0 5357.5)
(23028 257.73 0 7.7049 0 5315.9)
(22854 249.15 0 7.3316 0 5275.8)
(22687 240.98 0 6.9989 0 5237)
(22524 233.18 0 6.7057 0 5199.5)
(22367 225.7 0 6.4504 0 5163.2)
(22215 218.51 0 6.231 0 5128)
(22068 211.55 0 6.0441 0 5094)
(21926 204.81 0 5.8845 0 5061.1)
(21788 198.25 0 5.7451 0 5029.3)
(21655 191.85 0 5.6172 0 4998.5)
(21526 185.61 0 5.4917 0 4968.7)
(21401 179.53 0 5.3606 0 4939.9)
(21280 173.61 0 5.2188 0 4912)
(21163 167.86 0 5.065 0 4885)
(21051 162.28 0 4.9025 0 4858.9)
(20941 156.88 0 4.7381 0 4833.7)
(20836 151.66 0 4.5807 0 4809.4)
(20734 146.6 0 4.439 0 4785.9)
(20636 141.68 0 4.3204 0 4763.1)
(20541 136.87 0 4.2299 0 4741.2)
(20449 132.14 0 4.1704 0 4720)
(20361 127.46 0 4.1444 0 4699.6)
(20276 122.78 0 4.1549 0 4680)
(20194 118.07 0 4.2073 0 4661.1)
(20115 113.27 0 4.309 0 4643)
(20040 108.32 0 4.4677 0 4625.7)
(19968 103.18 0 4.685 0 4609.2)
(19900 97.788 0 4.946 0 4593.5)
(19836 92.143 0 5.2089 0 4578.7)
(19775 86.278 0 5.4041 0 4564.8)
(19719 80.299 0 5.4519 0 4551.7)
(19666 74.376 0 5.2974 0 4539.6)
(19618 68.692 0 4.9458 0 4528.3)
(19573 63.389 0 4.4781 0 4517.9)
(19532 58.499 0 4.0372 0 4508.3)
(19494 53.903 0 3.7899 0 4499.6)
(19460 49.331 0 3.8953 0 4491.6)
(19429 44.387 0 4.4933 0 4484.6)
(19401 38.607 0 5.6359 0 4478.5)
(19378 31.587 0 7.0925 0 4473.4)
(19359 23.292 0 8.2622 0 4469.4)
(19347 14.273 0 8.5324 0 4466.6)
(19340 5.4426 0 7.8066 0 4464.9)
(19339 -2.4825 0 6.4568 0 4464.4)
(19344 -9.25 0 5.0246 0 4465.1)
(19353 -15.146 0 4.3978 0 4467.1)
(19367 -20.979 0 4.8987 0 4470.5)
(19387 -27.389 0 5.2651 0 4475.1)
(19414 -34.626 0 5.2517 0 4481.4)
(19449 -41.904 0 5.4686 0 4489.6)
(19493 -48.033 0 3.6576 0 4499.3)
(19552 -54.95 0 0.098949 0 4511.9)
(19628 -59.486 0 -0.98961 0 4529.4)
(19713 -55.403 0 -1.1909 0 4549)
(19783 -41.854 0 -8.5243 0 4563.2)
(19850 -23.662 0 -21.16 0 4575.9)
(19780 2.9879 0 -31.065 0 4557.6)
(19634 41.876 0 -45.979 0 4520.3)
(19509 92.4 0 -62.122 0 4487.8)
(19236 156.23 0 -61.794 0 4424.9)
(18964 230.33 0 -62.661 0 4361.9)
(18820 312.98 0 -72.759 0 4326.2)
(18479 388.8 0 -65.329 0 4249.3)
(18114 454.13 0 -51.774 0 4168.3)
(17822 514.21 0 -46.047 0 4102.2)
(17457 554.15 0 -24.872 0 4022.8)
(17097 565.8 0 5.3871 0 3946.6)
(16896 550.38 0 24.389 0 3904.8)
(16615 505.27 0 40.183 0 3843.4)
(16313 445.91 0 47.993 0 3775.5)
(16141 394.74 0 38.505 0 3733.8)
(15903 356.07 0 28.531 0 3676.5)
(15683 324.33 0 25.061 0 3625)
(15481 297.64 0 22.241 0 3577.7)
(15294 274.87 0 19.223 0 3533.8)
(15119 255.34 0 16.321 0 3492.8)
(14955 238.55 0 13.826 0 3454.4)
(14801 224.06 0 11.811 0 3418.3)
(14654 211.49 0 10.209 0 3384.1)
(14515 200.51 0 8.9167 0 3351.7)
(14382 190.85 0 7.8548 0 3320.8)
(14256 182.29 0 6.9675 0 3291.4)
(14134 174.68 0 6.2169 0 3263.1)
(14017 167.86 0 5.5762 0 3236)
(13905 161.72 0 5.025 0 3209.9)
(13796 156.18 0 4.5478 0 3184.7)
(13691 151.16 0 4.1321 0 3160.3)
(13588 146.58 0 3.7681 0 3136.7)
(13489 142.4 0 3.4476 0 3113.7)
(13393 138.58 0 3.1642 0 3091.4)
(13299 135.06 0 2.9124 0 3069.6)
(13207 131.82 0 2.6878 0 3048.3)
(13117 128.83 0 2.4868 0 3027.6)
(13029 126.05 0 2.3061 0 3007.3)
(12943 123.48 0 2.1432 0 2987.4)
(12859 121.09 0 1.9958 0 2967.9)
(12776 118.86 0 1.862 0 2948.8)
(12695 116.79 0 1.7403 0 2930)
(12615 114.84 0 1.6292 0 2911.5)
(12536 113.02 0 1.5276 0 2893.4)
(12459 111.32 0 1.4344 0 2875.5)
(12383 109.71 0 1.3488 0 2857.8)
(12307 108.21 0 1.2698 0 2840.4)
(12233 106.79 0 1.197 0 2823.3)
(12160 105.45 0 1.1296 0 2806.3)
(12087 104.19 0 1.0671 0 2789.6)
(12016 103 0 1.009 0 2773.1)
(11945 101.87 0 0.95508 0 2756.7)
(11875 100.8 0 0.90479 0 2740.5)
(11805 99.793 0 0.85788 0 2724.5)
(11737 98.834 0 0.81403 0 2708.6)
(11668 97.924 0 0.77301 0 2692.9)
(11601 97.06 0 0.73457 0 2677.3)
(11534 96.239 0 0.6985 0 2661.9)
(11468 95.458 0 0.66463 0 2646.6)
(11402 94.714 0 0.63278 0 2631.4)
(11337 94.006 0 0.60282 0 2616.3)
(11272 93.331 0 0.5746 0 2601.3)
(11207 92.687 0 0.54796 0 2586.4)
(11143 92.073 0 0.52274 0 2571.7)
(11080 91.487 0 0.49879 0 2557)
(11017 90.927 0 0.47599 0 2542.4)
(10954 90.392 0 0.45429 0 2527.9)
(10891 89.881 0 0.43363 0 2513.5)
(10829 89.393 0 0.41387 0 2499.2)
(10768 88.926 0 0.39482 0 2484.9)
(10706 88.48 0 0.37636 0 2470.7)
(10645 88.054 0 0.35869 0 2456.6)
(10584 87.647 0 0.34219 0 2442.5)
(10523 87.258 0 0.32686 0 2428.6)
(10463 86.886 0 0.31182 0 2414.6)
(10403 86.531 0 0.29565 0 2400.8)
(10343 86.194 0 0.27846 0 2386.9)
(10283 85.874 0 0.26301 0 2373.2)
(10224 85.569 0 0.25184 0 2359.5)
(10165 85.277 0 0.24442 0 2345.8)
(10106 84.997 0 0.23538 0 2332.2)
(10047 84.727 0 0.22002 0 2318.6)
(9988.2 84.465 0 0.206 0 2305)
(9929.7 84.216 0 0.20419 0 2291.5)
(9871.4 83.966 0 0.22284 0 2278.1)
(9813.1 83.704 0 0.25279 0 2264.6)
(9755.3 83.416 0 0.26965 0 2251.3)
(9697.8 83.075 0 0.2897 0 2238)
(9640.4 82.673 0 0.33998 0 2224.8)
(9583.5 82.224 0 0.38703 0 2211.7)
(9526.8 81.755 0 0.38558 0 2198.6)
(9470.4 81.325 0 0.31882 0 2185.5)
(9414.3 80.996 0 0.20053 0 2172.6)
(9358.2 80.783 0 0.095256 0 2159.6)
(9302 80.667 0 0.058315 0 2146.6)
(9245.9 80.591 0 0.069377 0 2133.7)
(9189.8 80.511 0 0.079348 0 2120.7)
(9134 80.419 0 0.067343 0 2107.9)
(9078.2 80.331 0 0.049397 0 2095)
(9022.5 80.247 0 0.040284 0 2082.1)
(8966.9 80.167 0 0.038017 0 2069.3)
(8911.3 80.089 0 0.038106 0 2056.5)
(8855.7 80.012 0 0.037922 0 2043.6)
(8800.2 79.936 0 0.036769 0 2030.8)
(8744.8 79.861 0 0.034835 0 2018)
(8689.4 79.787 0 0.032433 0 2005.3)
(8634.1 79.715 0 0.029768 0 1992.5)
(8578.9 79.644 0 0.026971 0 1979.7)
(8523.6 79.576 0 0.024144 0 1967)
(8468.5 79.509 0 0.021374 0 1954.3)
(8413.3 79.444 0 0.018707 0 1941.5)
(8358.2 79.382 0 0.016127 0 1928.8)
(8303.2 79.321 0 0.013551 0 1916.1)
(8248.2 79.261 0 0.010849 0 1903.4)
(8193.3 79.204 0 0.007879 0 1890.8)
(8138.3 79.15 0 0.0045073 0 1878.1)
(8083.5 79.098 0 0.00060194 0 1865.4)
(8028.6 79.049 0 -0.0039779 0 1852.8)
(7973.8 79.005 0 -0.0092793 0 1840.1)
(7919 78.964 0 -0.014924 0 1827.5)
(7864.3 78.927 0 -0.019705 0 1814.8)
(7809.6 78.894 0 -0.021718 0 1802.2)
(7754.9 78.863 0 -0.020831 0 1789.6)
(7700.2 78.835 0 -0.02202 0 1777)
(7645.5 78.813 0 -0.028193 0 1764.3)
(7590.8 78.802 0 -0.035448 0 1751.7)
(7536 78.791 0 -0.030095 0 1739.1)
(7481.2 78.762 0 -0.0052256 0 1726.4)
(7426.7 78.692 0 0.041919 0 1713.9)
(7372.2 78.546 0 0.10089 0 1701.3)
(7318.2 78.324 0 0.16117 0 1688.8)
(7263.9 78.027 0 0.19918 0 1676.3)
(7210.3 77.719 0 0.17037 0 1664)
(7156.5 77.473 0 0.082403 0 1651.5)
(7103.1 77.357 0 -0.014668 0 1639.2)
(7049.1 77.339 0 -0.080186 0 1626.7)
(6995.6 77.387 0 -0.099201 0 1614.3)
(6941.5 77.433 0 -0.079278 0 1601.9)
(6887.8 77.458 0 -0.069118 0 1589.5)
(6834.1 77.48 0 -0.083447 0 1577.1)
(6780.4 77.503 0 -0.093425 0 1564.7)
(6726.6 77.526 0 -0.096083 0 1552.3)
(6672.8 77.549 0 -0.094992 0 1539.9)
(6619 77.571 0 -0.093307 0 1527.4)
(6565.2 77.591 0 -0.092372 0 1515)
(6511.4 77.609 0 -0.092243 0 1502.6)
(6457.6 77.626 0 -0.092526 0 1490.2)
(6403.8 77.642 0 -0.092943 0 1477.8)
(6350 77.657 0 -0.093476 0 1465.4)
(6296.1 77.671 0 -0.094279 0 1452.9)
(6242.3 77.686 0 -0.095619 0 1440.5)
(6188.4 77.7 0 -0.098242 0 1428.1)
(6134.6 77.718 0 -0.10312 0 1415.6)
(6080.7 77.741 0 -0.10825 0 1403.2)
(6026.8 77.772 0 -0.10967 0 1390.8)
(5972.8 77.815 0 -0.10926 0 1378.3)
(5918.8 77.855 0 -0.10202 0 1365.9)
(5864.7 77.873 0 -0.082543 0 1353.4)
(5810.8 77.845 0 -0.041923 0 1340.9)
(5756.9 77.732 0 0.038583 0 1328.5)
(5703.1 77.524 0 0.10829 0 1316.1)
(5649.9 77.289 0 0.092652 0 1303.8)
(5596.6 77.094 0 0.0099601 0 1291.5)
(5543.4 76.998 0 -0.089585 0 1279.2)
(5490.1 77.012 0 -0.15955 0 1266.9)
(5436.7 77.076 0 -0.1593 0 1254.6)
(5383 77.132 0 -0.11534 0 1242.2)
(5329.6 77.162 0 -0.10207 0 1229.9)
(5276.2 77.187 0 -0.1211 0 1217.5)
(5222.7 77.214 0 -0.14034 0 1205.2)
(5169.2 77.249 0 -0.15166 0 1192.9)
(5115.7 77.292 0 -0.15153 0 1180.5)
(5062.2 77.341 0 -0.1442 0 1168.2)
(5008.6 77.402 0 -0.14439 0 1155.8)
(4954.9 77.447 0 -0.14109 0 1143.4)
(4901 77.444 0 -0.088592 0 1131)
(4847.3 77.351 0 0.033933 0 1118.6)
(4793.8 77.086 0 0.15147 0 1106.3)
(4741.3 76.703 0 0.19808 0 1094.2)
(4689 76.258 0 0.21536 0 1082.1)
(4637.2 75.795 0 0.24357 0 1070.2)
(4585 75.323 0 0.27447 0 1058.1)
(4533.1 74.834 0 0.23383 0 1046.1)
(4481.4 74.245 0 -0.1487 0 1034.1)
(4433.1 73.776 0 -1.1829 0 1022.8)
(4384.8 74.226 0 -2.5856 0 1011.3)
(4332.5 76.357 0 -3.5152 0 999.01)
(4275 80.018 0 -3.263 0 985.79)
(4211.3 84.085 0 -1.6958 0 971.46)
(4142.9 87.051 0 0.36144 0 956.15)
(4081.3 87.882 0 1.7858 0 942.25)
(4021.6 86.719 0 2.3539 0 928.6)
(3963.8 84.486 0 2.5023 0 915.3)
(3907.2 81.543 0 2.2025 0 902.17)
(3856.5 78.711 0 1.2722 0 890.26)
(3806 76.42 0 0.097554 0 878.32)
(3758.1 75.326 0 -0.60737 0 867.1)
(3705 75.138 0 -0.22687 0 854.95)
(3651.4 74.791 0 0.78156 0 842.81)
(3599.1 73.806 0 1.2078 0 830.83)
(3551.4 72.595 0 0.45497 0 819.65)
(3505.6 72.103 0 -0.74916 0 808.8)
(3455.8 72.562 0 -1.3667 0 797.17)
(3404.8 73.59 0 -1.1694 0 785.46)
(3350.5 74.488 0 -0.61004 0 773.06)
(3298.9 75.113 0 -0.36747 0 761.21)
(3246.9 75.607 0 -0.43961 0 749.18)
(3194.4 76.022 0 -0.50221 0 737.06)
(3141.7 76.378 0 -0.50186 0 724.89)
(3088.7 76.673 0 -0.45874 0 712.68)
(3035.7 76.901 0 -0.39652 0 700.44)
(2982.5 77.058 0 -0.32924 0 688.19)
(2929.3 77.144 0 -0.26352 0 675.93)
(2876.1 77.163 0 -0.20198 0 663.68)
(2823 77.118 0 -0.14539 0 651.43)
(2770 77.016 0 -0.093732 0 639.2)
(2717.1 76.86 0 -0.046662 0 627)
(2664.3 76.656 0 -0.0037557 0 614.83)
(2611.7 76.408 0 0.035426 0 602.71)
(2559.3 76.12 0 0.071294 0 590.63)
(2507.2 75.795 0 0.10422 0 578.61)
(2455.3 75.438 0 0.13452 0 566.64)
(2403.7 75.05 0 0.16249 0 554.74)
(2352.4 74.635 0 0.18836 0 542.9)
(2301.4 74.194 0 0.21237 0 531.14)
(2250.7 73.731 0 0.23469 0 519.45)
(2200.4 73.246 0 0.25548 0 507.84)
(2150.4 72.743 0 0.27489 0 496.31)
(2100.8 72.221 0 0.29304 0 484.87)
(2051.6 71.683 0 0.31004 0 473.51)
(2002.7 71.131 0 0.32599 0 462.25)
(1954.3 70.565 0 0.34098 0 451.07)
(1906.3 69.986 0 0.35509 0 439.99)
(1858.7 69.396 0 0.36838 0 429.01)
(1811.5 68.796 0 0.38092 0 418.12)
(1764.7 68.186 0 0.39277 0 407.33)
(1718.4 67.567 0 0.40399 0 396.64)
(1672.5 66.941 0 0.41464 0 386.05)
(1627 66.307 0 0.42476 0 375.57)
(1582 65.667 0 0.43441 0 365.19)
(1537.5 65.02 0 0.44364 0 354.91)
(1493.4 64.368 0 0.45249 0 344.74)
(1449.8 63.711 0 0.46102 0 334.67)
(1406.6 63.049 0 0.46929 0 324.72)
(1363.9 62.382 0 0.47733 0 314.87)
(1321.7 61.711 0 0.48521 0 305.13)
(1280 61.036 0 0.49299 0 295.49)
(1238.7 60.357 0 0.50072 0 285.97)
(1197.9 59.674 0 0.50848 0 276.56)
(1157.6 58.987 0 0.51631 0 267.26)
(1117.8 58.295 0 0.5243 0 258.07)
(1078.4 57.599 0 0.53251 0 248.99)
(1039.6 56.898 0 0.54103 0 240.02)
(1001.2 56.192 0 0.54992 0 231.17)
(963.33 55.48 0 0.55928 0 222.44)
(925.96 54.761 0 0.56919 0 213.81)
(889.09 54.035 0 0.57973 0 205.31)
(852.74 53.301 0 0.591 0 196.92)
(816.89 52.559 0 0.6031 0 188.65)
(781.57 51.806 0 0.61611 0 180.5)
(746.77 51.042 0 0.63014 0 172.48)
(712.51 50.266 0 0.64527 0 164.58)
(678.79 49.475 0 0.66161 0 156.8)
(645.63 48.67 0 0.67924 0 149.15)
(613.02 47.847 0 0.69826 0 141.63)
(580.99 47.006 0 0.71874 0 134.24)
(549.54 46.144 0 0.74076 0 126.99)
(518.7 45.26 0 0.7644 0 119.88)
(488.47 44.352 0 0.78971 0 112.91)
(458.87 43.417 0 0.81674 0 106.08)
(429.91 42.454 0 0.84552 0 99.406)
(401.63 41.461 0 0.87606 0 92.886)
(374.03 40.435 0 0.90837 0 86.524)
(347.14 39.374 0 0.94243 0 80.326)
(320.98 38.277 0 0.97818 0 74.297)
(295.57 37.141 0 1.0156 0 68.443)
(270.94 35.965 0 1.0544 0 62.768)
(247.12 34.747 0 1.0947 0 57.28)
(224.13 33.485 0 1.1362 0 51.985)
(202 32.177 0 1.1787 0 46.888)
(180.76 30.824 0 1.222 0 41.996)
(160.44 29.424 0 1.2658 0 37.316)
(141.06 27.976 0 1.3098 0 32.855)
(122.67 26.481 0 1.3535 0 28.62)
(105.27 24.939 0 1.3965 0 24.616)
(88.916 23.35 0 1.4384 0 20.851)
(73.621 21.718 0 1.4786 0 17.331)
(59.413 20.044 0 1.5165 0 14.061)
(46.318 18.33 0 1.5512 0 11.047)
(34.356 16.582 0 1.5821 0 8.2934)
(23.547 14.803 0 1.6082 0 5.805)
(13.905 13.001 0 1.6284 0 3.5846)
(5.4401 11.182 0 1.6415 0 1.6342)
(-1.8431 9.3564 0 1.646 0 -0.045482)
(-7.9471 7.5339 0 1.6404 0 -1.4554)
(-12.882 5.7278 0 1.6224 0 -2.5984)
(-16.668 3.9538 0 1.5897 0 -3.4795)
(-19.335 2.2302 0 1.5392 0 -4.1067)
(-20.928 0.57966 0 1.4672 0 -4.4909)
(-21.506 -0.97111 0 1.3687 0 -4.647)
(-21.147 -2.3898 0 1.2378 0 -4.5944)
(-19.949 -3.6379 0 1.0676 0 -4.3572)
(-18.036 -4.6704 0 0.85192 0 -3.9655)
(-15.568 -5.4364 0 0.58366 0 -3.4579)
(-12.729 -5.8653 0 0.2393 0 -2.8824)
(-9.6569 -5.8185 0 -0.22226 0 -2.2798)
(-6.7009 -5.2889 0 -0.80714 0 -1.7326)
(-4.1054 -4.3162 0 -1.4733 0 -1.2874)
(-1.9618 -2.7478 0 -1.9658 0 -0.90637)
(-0.29177 -0.57971 0 -1.3511 0 -0.37913)
(34920 8748.3 0 7593.8 0 9810.8)
(37329 7418.2 0 4083.5 0 9556.8)
(37312 5929 0 2118.1 0 9099.3)
(36507 4711.9 0 1242.4 0 8711.3)
(35199 3776.7 0 879.1 0 8325.6)
(34021 3115.4 0 705.19 0 8013.6)
(33198 2657.4 0 552.2 0 7788.5)
(32375 2306.1 0 414.12 0 7566.6)
(31598 2027.2 0 318.42 0 7365.4)
(30893 1803.6 0 255.06 0 7188)
(30254 1621.9 0 210.25 0 7030.2)
(29673 1471.9 0 175.96 0 6888.1)
(29139 1346.2 0 148.63 0 6758.8)
(28647 1239.4 0 126.71 0 6640)
(28189 1147.7 0 109.17 0 6530.4)
(27763 1068.1 0 95.042 0 6428.7)
(27364 998.47 0 83.533 0 6334)
(26989 937 0 74.029 0 6245.3)
(26636 882.33 0 66.084 0 6162.1)
(26303 833.39 0 59.369 0 6083.6)
(25988 789.31 0 53.642 0 6009.5)
(25688 749.39 0 48.716 0 5939.3)
(25403 713.06 0 44.449 0 5872.6)
(25132 679.85 0 40.729 0 5809.1)
(24873 649.37 0 37.467 0 5748.6)
(24625 621.28 0 34.592 0 5690.7)
(24388 595.3 0 32.048 0 5635.4)
(24160 571.19 0 29.787 0 5582.4)
(23942 548.75 0 27.77 0 5531.5)
(23732 527.81 0 25.964 0 5482.6)
(23530 508.19 0 24.343 0 5435.6)
(23335 489.78 0 22.884 0 5390.3)
(23148 472.44 0 21.568 0 5346.7)
(22966 456.07 0 20.38 0 5304.7)
(22792 440.58 0 19.311 0 5264.1)
(22623 425.87 0 18.353 0 5224.9)
(22459 411.87 0 17.499 0 5187)
(22302 398.49 0 16.745 0 5150.4)
(22149 385.66 0 16.087 0 5115)
(22001 373.31 0 15.519 0 5080.8)
(21858 361.37 0 15.031 0 5047.7)
(21720 349.8 0 14.611 0 5015.6)
(21586 338.56 0 14.243 0 4984.7)
(21457 327.6 0 13.905 0 4954.7)
(21331 316.91 0 13.576 0 4925.7)
(21210 306.49 0 13.24 0 4897.7)
(21093 296.34 0 12.882 0 4870.6)
(20980 286.48 0 12.5 0 4844.4)
(20871 276.9 0 12.103 0 4819.1)
(20765 267.62 0 11.704 0 4794.6)
(20663 258.61 0 11.324 0 4771)
(20565 249.87 0 10.983 0 4748.2)
(20470 241.35 0 10.698 0 4726.3)
(20378 233.02 0 10.48 0 4705.1)
(20290 224.82 0 10.337 0 4684.7)
(20205 216.7 0 10.274 0 4665.1)
(20123 208.6 0 10.298 0 4646.2)
(20045 200.46 0 10.422 0 4628.2)
(19970 192.2 0 10.66 0 4610.9)
(19898 183.73 0 11.029 0 4594.4)