/*--------------------------------*- C++ -*----------------------------------*\
| =========                 |                                                 |
| \\      /  F ield         | OpenFOAM: The Open Source CFD Toolbox           |
|  \\    /   O peration     | Version:  5.x                                   |
|   \\  /    A nd           | Web:      www.OpenFOAM.org                      |
|    \\/     M anipulation  |                                                 |
\*---------------------------------------------------------------------------*/
FoamFile
{
    version     2.0;
    format      ascii;
    class       volScalarField;
    location    "35";
    object      gamma;
}
// * * * * * * * * * * * * * * * * * * * * * * * * * * * * * * * * * * * * * //

dimensions      [0 0 0 0 0 0 0];

internalField   nonuniform List<scalar> 
86400
(
0.0403
0.03531
0.03215
0.02906
0.02883
0.0293
0.0301
0.03228
0.0377
0.04531
0.05742
0.07079
0.08734
0.1017
0.1205
0.1324
0.1447
0.1491
0.1559
0.1637
0.1784
0.1917
0.2032
0.2135
0.226
0.247
0.2642
0.279
0.2849
0.2902
0.2935
0.2998
0.3056
0.3104
0.3141
0.3165
0.308
0.2935
0.2739
0.2613
0.2618
0.2769
0.293
0.307
0.3208
0.3298
0.3435
0.3538
0.3606
0.3601
0.3597
0.3595
0.3593
0.3593
0.3594
0.3589
0.3582
0.3574
0.3568
0.3566
0.357
0.3584
0.3605
0.3644
0.3688
0.3728
0.3754
0.3771
0.3771
0.3748
0.371
0.3667
0.3631
0.3612
0.3629
0.3652
0.3676
0.3696
0.371
0.3715
0.3719
0.3721
0.3724
0.3727
0.373
0.3732
0.3733
0.3732
0.3732
0.3732
0.3731
0.3741
0.3757
0.3778
0.3792
0.3799
0.3805
0.3817
0.3831
0.3854
0.3876
0.3901
0.3928
0.3957
0.397
0.4004
0.4047
0.4104
0.4146
0.4173
0.4173
0.4169
0.4164
0.4157
0.415
0.4144
0.4139
0.4135
0.4132
0.4128
0.4125
0.4121
0.4117
0.4113
0.4109
0.4104
0.41
0.4096
0.4093
0.4088
0.4083
0.4076
0.4067
0.4059
0.4051
0.4043
0.4035
0.4025
0.401
0.3991
0.3969
0.3937
0.3904
0.3868
0.3837
0.3808
0.3785
0.3757
0.3728
0.3697
0.3674
0.3662
0.3677
0.3738
0.3871
0.4095
0.44
0.4756
0.7681
0.9146
0.03646
0.03212
0.02951
0.02698
0.02789
0.03009
0.03332
0.03859
0.04748
0.05816
0.07436
0.09021
0.1081
0.1245
0.1478
0.1665
0.187
0.2021
0.2178
0.2329
0.2568
0.279
0.2985
0.3145
0.3316
0.3532
0.374
0.391
0.4021
0.4111
0.4114
0.4094
0.4045
0.3996
0.3969
0.3987
0.3923
0.3808
0.3657
0.3537
0.3562
0.3717
0.3911
0.4049
0.4159
0.4205
0.4267
0.4319
0.4351
0.4343
0.4337
0.4331
0.4327
0.4325
0.4323
0.4319
0.4313
0.4306
0.4301
0.4299
0.4302
0.4316
0.4336
0.4371
0.4409
0.4447
0.4467
0.4481
0.4483
0.4461
0.4427
0.4388
0.4361
0.4308
0.4262
0.4207
0.4163
0.4138
0.415
0.4154
0.4156
0.4158
0.416
0.4161
0.4162
0.4162
0.4161
0.4159
0.4157
0.4156
0.4153
0.4167
0.4189
0.4214
0.4234
0.4245
0.4251
0.4263
0.4278
0.4299
0.4319
0.4338
0.4356
0.4373
0.4382
0.4394
0.4405
0.4418
0.443
0.4436
0.4434
0.4429
0.4424
0.4419
0.4413
0.4408
0.4404
0.4401
0.4397
0.4393
0.4389
0.4385
0.438
0.4376
0.4371
0.4365
0.436
0.4356
0.4351
0.4345
0.4338
0.4329
0.432
0.431
0.4301
0.4292
0.4281
0.4269
0.4251
0.4229
0.4204
0.4174
0.4144
0.4112
0.4082
0.405
0.402
0.3987
0.3956
0.3929
0.3912
0.3916
0.3953
0.4044
0.4207
0.4459
0.479
0.5173
0.6449
0.7616
0.03473
0.03088
0.02869
0.02721
0.02993
0.03476
0.04151
0.05148
0.06558
0.08081
0.1003
0.1184
0.1402
0.1647
0.1964
0.2273
0.2622
0.2924
0.3241
0.3555
0.3927
0.4249
0.4523
0.4728
0.4918
0.5057
0.5138
0.5175
0.5196
0.5228
0.5227
0.5188
0.5118
0.505
0.5003
0.5013
0.4977
0.491
0.4841
0.4798
0.4848
0.4953
0.5078
0.5157
0.5213
0.5225
0.5244
0.5261
0.5269
0.5259
0.5251
0.5245
0.5239
0.5235
0.5232
0.5228
0.5224
0.5219
0.5216
0.5215
0.5216
0.5227
0.5244
0.5273
0.5301
0.5326
0.5339
0.5349
0.5353
0.5338
0.5314
0.5281
0.5267
0.5179
0.5064
0.4921
0.4794
0.4711
0.4721
0.4724
0.4726
0.4725
0.4725
0.4724
0.4723
0.4721
0.4727
0.4737
0.4748
0.4756
0.4759
0.4769
0.4788
0.4811
0.4829
0.4839
0.4844
0.4856
0.4873
0.4891
0.4906
0.4916
0.4927
0.4938
0.4933
0.4916
0.4892
0.4867
0.4848
0.4841
0.4837
0.4833
0.4827
0.4822
0.4818
0.4814
0.481
0.4806
0.4802
0.4798
0.4793
0.4788
0.4782
0.4776
0.477
0.4764
0.4757
0.4751
0.4745
0.4737
0.4727
0.4716
0.4705
0.4694
0.4684
0.4673
0.4659
0.4642
0.462
0.4596
0.4569
0.4541
0.4511
0.448
0.4448
0.4414
0.438
0.4346
0.4318
0.4298
0.4294
0.4316
0.4377
0.4494
0.4681
0.4945
0.528
0.5662
0.6056
0.6355
0.03361
0.03081
0.02985
0.03044
0.03645
0.0461
0.05933
0.07803
0.1004
0.1248
0.1508
0.1744
0.2009
0.2341
0.2784
0.3324
0.3967
0.4476
0.4922
0.5296
0.564
0.5945
0.6162
0.6288
0.6373
0.6382
0.6362
0.635
0.6346
0.6358
0.6361
0.6319
0.6229
0.6159
0.6109
0.6109
0.6095
0.6086
0.6102
0.6135
0.6206
0.629
0.635
0.6381
0.6393
0.6376
0.6362
0.635
0.634
0.6331
0.6323
0.6316
0.6309
0.6304
0.63
0.6296
0.6292
0.6288
0.6286
0.6284
0.6284
0.6291
0.6301
0.6318
0.6335
0.635
0.6359
0.6367
0.6374
0.6368
0.6358
0.635
0.6318
0.618
0.5987
0.5744
0.5549
0.5443
0.5448
0.5451
0.5451
0.5458
0.5468
0.5481
0.5491
0.5496
0.5504
0.5518
0.5533
0.5544
0.555
0.5557
0.5571
0.5592
0.5606
0.5614
0.5619
0.5627
0.5639
0.5651
0.5662
0.5667
0.5661
0.5648
0.5615
0.5565
0.5508
0.5458
0.5419
0.5402
0.5397
0.5392
0.5387
0.5382
0.5379
0.5375
0.5371
0.5367
0.5361
0.5355
0.5349
0.5343
0.5336
0.5329
0.5321
0.5313
0.5304
0.5295
0.5285
0.5275
0.5263
0.5251
0.5238
0.5225
0.5212
0.5197
0.5178
0.5154
0.5129
0.5105
0.5077
0.505
0.5021
0.4991
0.4956
0.4923
0.4888
0.4857
0.4835
0.4827
0.4842
0.4888
0.4978
0.512
0.5321
0.5584
0.59
0.6254
0.6617
0.6904
0.03678
0.03566
0.03674
0.04087
0.05255
0.07021
0.09106
0.1204
0.151
0.1823
0.2116
0.2411
0.2759
0.3285
0.3919
0.4519
0.5065
0.5538
0.5969
0.6349
0.6647
0.6884
0.7019
0.7098
0.7154
0.7167
0.7148
0.7123
0.7108
0.71
0.7091
0.7048
0.6984
0.6925
0.6886
0.688
0.6876
0.6903
0.6966
0.7049
0.7137
0.7193
0.7213
0.7213
0.7206
0.7194
0.7184
0.7175
0.7167
0.7161
0.7154
0.7148
0.7142
0.7138
0.7134
0.7131
0.7128
0.7126
0.7124
0.7123
0.7123
0.7126
0.7132
0.7139
0.7147
0.7153
0.7158
0.7158
0.7158
0.7152
0.7122
0.7083
0.7005
0.6832
0.6608
0.637
0.6185
0.61
0.6112
0.6121
0.6121
0.6131
0.6145
0.6162
0.6176
0.6184
0.6192
0.6207
0.6226
0.6238
0.6245
0.625
0.6261
0.6274
0.6286
0.6293
0.6296
0.6302
0.631
0.6316
0.632
0.6311
0.6282
0.6242
0.6185
0.6119
0.6055
0.6009
0.5972
0.5955
0.5948
0.5943
0.5938
0.5933
0.5928
0.5924
0.5919
0.5913
0.5906
0.5899
0.5892
0.5884
0.5876
0.5867
0.5857
0.5847
0.5836
0.5824
0.5812
0.58
0.5787
0.5774
0.5761
0.5746
0.5729
0.5709
0.5687
0.5662
0.5636
0.5611
0.5583
0.5554
0.5524
0.5491
0.5458
0.5427
0.5398
0.5376
0.5367
0.5375
0.5408
0.5473
0.5578
0.5725
0.5917
0.615
0.6418
0.6709
0.7001
0.7245
0.04221
0.04407
0.04894
0.05984
0.08029
0.1059
0.1327
0.1672
0.1994
0.2327
0.2656
0.3011
0.3446
0.4062
0.4627
0.5156
0.565
0.6104
0.6502
0.6862
0.7121
0.7308
0.7396
0.7444
0.7445
0.7442
0.7418
0.7415
0.7411
0.7401
0.7396
0.7363
0.7318
0.7276
0.7252
0.7241
0.7253
0.7311
0.7407
0.7524
0.7617
0.7666
0.7677
0.7673
0.7663
0.7655
0.7648
0.7643
0.7638
0.7634
0.7629
0.7625
0.7622
0.7619
0.7617
0.7615
0.7613
0.7612
0.7611
0.7611
0.7612
0.7613
0.7614
0.7617
0.7621
0.7625
0.7612
0.758
0.7541
0.7505
0.7456
0.742
0.7339
0.7184
0.6969
0.6793
0.6653
0.6603
0.6618
0.663
0.6631
0.6641
0.6656
0.6677
0.6692
0.6701
0.6708
0.6719
0.6731
0.6741
0.6748
0.6751
0.6757
0.6766
0.6774
0.678
0.6781
0.6783
0.6784
0.6776
0.6762
0.6732
0.6681
0.6622
0.6554
0.6489
0.6439
0.6405
0.6379
0.6368
0.6362
0.6356
0.6351
0.6345
0.6339
0.6333
0.6327
0.632
0.6312
0.6303
0.6295
0.6286
0.6276
0.6265
0.6254
0.6241
0.6228
0.6215
0.6201
0.6189
0.6176
0.6163
0.6148
0.613
0.611
0.609
0.6069
0.6044
0.6019
0.5991
0.5964
0.5935
0.5906
0.5876
0.5847
0.5822
0.5802
0.5793
0.5798
0.582
0.5868
0.5945
0.6055
0.6196
0.6366
0.6561
0.6775
0.6998
0.7219
0.742
0.05049
0.05554
0.065
0.08252
0.11
0.1396
0.1685
0.2012
0.2304
0.2623
0.2932
0.3298
0.3796
0.4407
0.4986
0.5486
0.5932
0.6337
0.6675
0.698
0.7193
0.7331
0.738
0.7418
0.7432
0.7445
0.7438
0.7453
0.7466
0.7467
0.7476
0.7469
0.7461
0.7454
0.745
0.7436
0.7466
0.7549
0.7672
0.7788
0.7869
0.7891
0.7886
0.7876
0.787
0.7864
0.786
0.7857
0.7854
0.7852
0.785
0.7849
0.7848
0.7847
0.7847
0.7847
0.7847
0.7847
0.7848
0.7849
0.7852
0.7854
0.7858
0.7844
0.7821
0.7794
0.7745
0.7686
0.7633
0.7583
0.7521
0.7475
0.7378
0.7254
0.7115
0.7018
0.695
0.6946
0.6961
0.6973
0.6974
0.6983
0.6995
0.7009
0.7021
0.7029
0.7033
0.704
0.7048
0.7055
0.7059
0.706
0.7061
0.7063
0.7065
0.7067
0.7068
0.707
0.7062
0.7036
0.6999
0.6946
0.6878
0.6809
0.6751
0.6698
0.6666
0.6648
0.6634
0.6628
0.6621
0.6615
0.6609
0.6602
0.6594
0.6587
0.6578
0.657
0.656
0.6551
0.6541
0.653
0.6518
0.6506
0.6493
0.648
0.6467
0.6454
0.6441
0.6428
0.6415
0.6402
0.6388
0.6371
0.6353
0.6332
0.6309
0.6283
0.6258
0.6231
0.6204
0.6177
0.6153
0.6127
0.6104
0.6088
0.608
0.6082
0.61
0.6134
0.6192
0.6273
0.638
0.6508
0.6654
0.6814
0.6982
0.7152
0.7313
0.7457
0.06627
0.07387
0.08709
0.11
0.1416
0.1727
0.2029
0.2332
0.2572
0.2805
0.3068
0.3445
0.3977
0.4611
0.5246
0.5744
0.616
0.6467
0.6705
0.6911
0.706
0.7171
0.7247
0.7303
0.7338
0.7384
0.7428
0.7486
0.7539
0.7566
0.7576
0.7574
0.7567
0.7559
0.7553
0.7535
0.758
0.7678
0.7806
0.7913
0.7981
0.7983
0.7972
0.7965
0.796
0.7957
0.7956
0.7954
0.7954
0.7954
0.7955
0.7955
0.7957
0.7958
0.796
0.7962
0.7965
0.7967
0.7969
0.7972
0.7976
0.7964
0.7945
0.7898
0.784
0.7782
0.7719
0.7642
0.7571
0.7517
0.7455
0.7415
0.7352
0.7277
0.7207
0.7176
0.7163
0.7178
0.7191
0.7201
0.7202
0.7208
0.7216
0.7225
0.7233
0.7238
0.7238
0.7239
0.724
0.7241
0.7244
0.7246
0.7248
0.725
0.7251
0.7253
0.7245
0.7232
0.7204
0.7155
0.7097
0.7028
0.6959
0.6901
0.686
0.6828
0.6813
0.6806
0.6799
0.6793
0.6786
0.6779
0.6771
0.6763
0.6754
0.6745
0.6735
0.6725
0.6715
0.6704
0.6693
0.6681
0.6668
0.6655
0.6642
0.663
0.6618
0.6606
0.6594
0.6583
0.6572
0.6562
0.6551
0.6536
0.6515
0.6493
0.6469
0.6443
0.6419
0.6393
0.6369
0.6346
0.6326
0.6308
0.6294
0.6287
0.629
0.6303
0.6331
0.6373
0.6435
0.6515
0.6612
0.6725
0.6847
0.6976
0.7106
0.7233
0.7348
0.7446
0.08916
0.09831
0.1111
0.1351
0.1691
0.2054
0.2396
0.2659
0.2809
0.2951
0.3177
0.3587
0.4186
0.4883
0.5577
0.6028
0.6342
0.651
0.6618
0.6703
0.6858
0.6969
0.7095
0.7211
0.7311
0.7404
0.7473
0.7528
0.7577
0.7606
0.762
0.7624
0.7622
0.7616
0.7607
0.7585
0.7641
0.7743
0.7869
0.7969
0.803
0.802
0.8011
0.8006
0.8004
0.8003
0.8002
0.8003
0.8004
0.8006
0.8008
0.801
0.8013
0.8016
0.8019
0.8022
0.8025
0.8028
0.802
0.8005
0.7987
0.7947
0.7904
0.7836
0.7756
0.7667
0.7598
0.7523
0.7475
0.7431
0.7386
0.736
0.7335
0.7314
0.7303
0.7311
0.7322
0.7333
0.7343
0.7349
0.7351
0.7352
0.7353
0.7353
0.7354
0.7355
0.7356
0.7357
0.7359
0.7361
0.7363
0.7366
0.7368
0.7369
0.737
0.7362
0.7336
0.73
0.7247
0.7179
0.7109
0.7048
0.6992
0.6957
0.6937
0.6922
0.6915
0.6908
0.6901
0.6893
0.6886
0.6877
0.6868
0.6859
0.685
0.684
0.6829
0.6818
0.6807
0.6795
0.6783
0.677
0.6758
0.6746
0.6734
0.6723
0.6716
0.6708
0.6701
0.6693
0.6684
0.6675
0.6664
0.6649
0.6626
0.6602
0.6576
0.6552
0.6531
0.651
0.649
0.6472
0.6458
0.6448
0.6443
0.6445
0.6456
0.6478
0.6512
0.6559
0.6619
0.6693
0.6779
0.6874
0.6975
0.7078
0.7179
0.7273
0.7355
0.742
0.1138
0.1207
0.1341
0.1603
0.1987
0.242
0.2769
0.2993
0.3093
0.3198
0.3414
0.3866
0.4488
0.5191
0.5851
0.6232
0.6428
0.6454
0.6431
0.6452
0.6631
0.6813
0.7003
0.7164
0.7293
0.7388
0.7461
0.7518
0.7567
0.7602
0.7627
0.7644
0.7652
0.7651
0.764
0.7616
0.7673
0.7772
0.7893
0.7987
0.8042
0.8029
0.8021
0.8018
0.8017
0.8018
0.8019
0.802
0.8022
0.8025
0.8028
0.8031
0.8033
0.8036
0.8039
0.8031
0.8017
0.8001
0.7968
0.7931
0.7899
0.784
0.778
0.7693
0.761
0.7531
0.7476
0.7421
0.7395
0.7372
0.7364
0.7373
0.7384
0.7393
0.7401
0.7404
0.7407
0.741
0.7412
0.7413
0.7415
0.7416
0.7417
0.7419
0.742
0.7422
0.7425
0.7427
0.743
0.7432
0.7435
0.7437
0.7438
0.743
0.7417
0.7388
0.7339
0.7282
0.7212
0.7141
0.7082
0.704
0.7005
0.699
0.6983
0.6976
0.6969
0.6962
0.6954
0.6946
0.6937
0.6928
0.6918
0.6908
0.6898
0.6887
0.6876
0.6865
0.6853
0.6841
0.6829
0.6817
0.6806
0.6797
0.6791
0.6787
0.6785
0.6782
0.6776
0.6769
0.6761
0.6751
0.6738
0.6719
0.6694
0.6669
0.6645
0.6625
0.6609
0.6593
0.6579
0.6568
0.656
0.6557
0.6559
0.6569
0.6587
0.6614
0.6651
0.6698
0.6754
0.682
0.6893
0.6972
0.7053
0.7134
0.721
0.7279
0.7336
0.7377
0.1336
0.1397
0.154
0.1848
0.2313
0.2828
0.3178
0.3385
0.3493
0.3646
0.392
0.4399
0.5011
0.562
0.6118
0.6363
0.6425
0.6339
0.6316
0.6366
0.655
0.6742
0.6922
0.7071
0.7211
0.7322
0.7408
0.7475
0.7525
0.7562
0.7587
0.7602
0.7608
0.7604
0.7606
0.7605
0.768
0.7787
0.7907
0.7989
0.8038
0.8026
0.802
0.8018
0.8018
0.8019
0.802
0.8021
0.8023
0.8025
0.8026
0.8027
0.802
0.8007
0.7991
0.7961
0.7927
0.7896
0.7847
0.7794
0.7744
0.7678
0.7614
0.755
0.7481
0.7421
0.7399
0.7386
0.7396
0.7405
0.7411
0.7414
0.7417
0.742
0.7424
0.7427
0.743
0.7432
0.7434
0.7436
0.7439
0.7441
0.7443
0.7446
0.7449
0.7452
0.7456
0.7459
0.7462
0.7464
0.7466
0.7467
0.7459
0.7433
0.7397
0.7343
0.7275
0.7204
0.7142
0.7085
0.7049
0.7028
0.7012
0.7006
0.6999
0.6992
0.6984
0.6976
0.6968
0.6959
0.6949
0.6939
0.6929
0.6919
0.6909
0.6897
0.6886
0.6875
0.6863
0.6852
0.6843
0.6837
0.6832
0.6831
0.6831
0.683
0.683
0.6828
0.6823
0.6816
0.6806
0.6792
0.6775
0.6753
0.6727
0.6704
0.6685
0.6671
0.666
0.6651
0.6642
0.6637
0.6635
0.6637
0.6646
0.6661
0.6683
0.6713
0.675
0.6794
0.6845
0.6902
0.6963
0.7026
0.709
0.7152
0.7209
0.7257
0.7294
0.7317
0.1458
0.154
0.1776
0.2195
0.2802
0.3412
0.3738
0.3949
0.4115
0.4348
0.4635
0.5094
0.5595
0.6018
0.6305
0.6401
0.6346
0.6299
0.6318
0.6417
0.6601
0.6783
0.6934
0.7044
0.7147
0.7222
0.7281
0.7334
0.7388
0.7427
0.7452
0.7483
0.7515
0.754
0.7576
0.7606
0.7679
0.7774
0.7876
0.7937
0.7974
0.7965
0.796
0.7958
0.7957
0.7957
0.7957
0.7957
0.7957
0.795
0.7939
0.7926
0.79
0.787
0.7842
0.7797
0.7747
0.77
0.7644
0.7586
0.7546
0.7491
0.744
0.741
0.7385
0.7373
0.738
0.7383
0.7386
0.739
0.7393
0.7397
0.7401
0.7405
0.7409
0.7412
0.7416
0.7419
0.7422
0.7425
0.7429
0.7433
0.7437
0.7441
0.7446
0.745
0.7454
0.7457
0.746
0.7461
0.7462
0.7453
0.7427
0.7376
0.7314
0.7236
0.7164
0.7104
0.706
0.7025
0.7009
0.7003
0.6996
0.699
0.6982
0.6975
0.6966
0.6958
0.6949
0.6939
0.693
0.692
0.6909
0.6899
0.6888
0.6877
0.6866
0.6858
0.6852
0.6846
0.6844
0.6845
0.6845
0.6848
0.6851
0.6852
0.6851
0.6848
0.684
0.683
0.6818
0.6799
0.6776
0.6752
0.673
0.6714
0.6704
0.6696
0.669
0.6685
0.6681
0.6681
0.6684
0.6692
0.6705
0.6724
0.6748
0.6777
0.6812
0.6853
0.6897
0.6945
0.6995
0.7045
0.7094
0.714
0.718
0.7211
0.7232
0.7241
0.1489
0.1656
0.2023
0.2639
0.3461
0.4112
0.4375
0.4597
0.4835
0.5142
0.5409
0.5734
0.6036
0.6247
0.6345
0.6338
0.6303
0.6334
0.6448
0.6587
0.6734
0.6851
0.6958
0.7028
0.7101
0.7148
0.7188
0.7227
0.7281
0.7319
0.7343
0.7384
0.7429
0.7473
0.7529
0.7579
0.7649
0.772
0.7786
0.7819
0.784
0.7831
0.7826
0.7823
0.782
0.7814
0.7805
0.7796
0.7788
0.7771
0.7751
0.7728
0.769
0.7646
0.7604
0.7552
0.75
0.7462
0.7414
0.7368
0.734
0.7317
0.7304
0.7307
0.7311
0.7315
0.732
0.7325
0.7331
0.7336
0.7341
0.7346
0.7351
0.7356
0.7361
0.7365
0.737
0.7375
0.738
0.7386
0.7391
0.7397
0.7403
0.7408
0.7414
0.7418
0.7422
0.7425
0.7426
0.7419
0.7406
0.7377
0.7328
0.7257
0.7179
0.7103
0.7045
0.7008
0.6986
0.6971
0.6965
0.6959
0.6952
0.6945
0.6937
0.6929
0.692
0.6911
0.6902
0.6893
0.6883
0.6873
0.6862
0.6852
0.6844
0.6838
0.6833
0.6832
0.6831
0.6831
0.6834
0.6839
0.6843
0.6848
0.685
0.6847
0.6843
0.6838
0.6829
0.6816
0.6798
0.6775
0.6751
0.673
0.6718
0.671
0.6706
0.6702
0.6699
0.6697
0.6698
0.6702
0.671
0.6722
0.6738
0.6758
0.6782
0.681
0.6842
0.6878
0.6916
0.6955
0.6995
0.7034
0.707
0.7102
0.7128
0.7147
0.7156
0.7154
0.1541
0.1816
0.2345
0.3245
0.4269
0.4801
0.5025
0.522
0.5451
0.5724
0.5917
0.6105
0.6244
0.6306
0.6281
0.6293
0.6327
0.6441
0.6606
0.674
0.6835
0.6912
0.6979
0.7011
0.7046
0.7051
0.7068
0.7094
0.7143
0.7177
0.7199
0.7245
0.7301
0.7367
0.7433
0.7488
0.7528
0.7568
0.76
0.7607
0.7609
0.7601
0.7594
0.7588
0.7582
0.7571
0.7556
0.754
0.7527
0.7503
0.7478
0.7445
0.7401
0.7357
0.7323
0.728
0.7239
0.7214
0.7194
0.7183
0.7187
0.7193
0.7199
0.7206
0.7213
0.722
0.7228
0.7235
0.7243
0.725
0.7257
0.7263
0.7269
0.7276
0.7283
0.729
0.7298
0.7305
0.7312
0.732
0.7327
0.7335
0.7342
0.7348
0.7354
0.7358
0.7361
0.7355
0.7343
0.7315
0.7282
0.7234
0.7174
0.7094
0.7025
0.6964
0.6929
0.6914
0.6908
0.6902
0.6896
0.6889
0.6882
0.6875
0.6867
0.6858
0.685
0.6841
0.6831
0.6822
0.6812
0.6802
0.6795
0.679
0.679
0.6792
0.6793
0.6796
0.6799
0.6804
0.681
0.6818
0.6821
0.6823
0.6822
0.6816
0.6808
0.68
0.6787
0.677
0.675
0.6727
0.6709
0.6697
0.6693
0.6691
0.669
0.6689
0.6689
0.6691
0.6695
0.6703
0.6714
0.6728
0.6745
0.6766
0.6789
0.6816
0.6844
0.6875
0.6907
0.6938
0.6969
0.6998
0.7024
0.7045
0.7061
0.7069
0.7069
0.706
0.1617
0.2025
0.2741
0.4002
0.5001
0.5495
0.5664
0.5757
0.5888
0.6043
0.6146
0.6236
0.6263
0.6256
0.6247
0.6298
0.6392
0.6546
0.6702
0.6801
0.6856
0.6885
0.6905
0.6897
0.6893
0.6882
0.6879
0.689
0.6929
0.6957
0.6976
0.7021
0.7077
0.7134
0.7195
0.7244
0.7265
0.7282
0.7291
0.7284
0.7278
0.7271
0.7265
0.7259
0.7253
0.7239
0.7222
0.7201
0.7186
0.7162
0.7141
0.7116
0.7082
0.7049
0.7029
0.7013
0.7006
0.7014
0.7022
0.703
0.704
0.705
0.7061
0.7072
0.7082
0.7093
0.7103
0.7113
0.7123
0.7132
0.7141
0.7151
0.716
0.717
0.718
0.719
0.72
0.721
0.722
0.723
0.7239
0.7247
0.7255
0.7262
0.7266
0.7269
0.7264
0.724
0.7207
0.7156
0.7102
0.7039
0.698
0.6919
0.6876
0.6841
0.6826
0.6821
0.6815
0.6809
0.6803
0.6797
0.6789
0.6782
0.6774
0.6766
0.6757
0.6749
0.6739
0.6732
0.6727
0.6724
0.6724
0.6726
0.6731
0.6738
0.6744
0.6749
0.6755
0.6759
0.6765
0.6772
0.6773
0.677
0.6764
0.6754
0.6744
0.6736
0.6724
0.6707
0.6688
0.6669
0.6657
0.6653
0.6653
0.6655
0.6655
0.6657
0.666
0.6666
0.6674
0.6684
0.6697
0.6713
0.6731
0.6751
0.6773
0.6797
0.6822
0.6848
0.6874
0.6899
0.6922
0.6943
0.6961
0.6974
0.6981
0.6983
0.6978
0.6966
0.1709
0.2243
0.3167
0.4665
0.5647
0.612
0.622
0.6208
0.6169
0.618
0.6203
0.6224
0.623
0.6258
0.6284
0.6372
0.648
0.6592
0.6663
0.6698
0.6698
0.6679
0.6652
0.6609
0.6568
0.6541
0.6529
0.6537
0.6567
0.6594
0.6617
0.666
0.6713
0.6767
0.6811
0.6835
0.6838
0.6841
0.6845
0.685
0.6854
0.6852
0.685
0.6848
0.6846
0.6837
0.6825
0.6813
0.6804
0.6791
0.6782
0.6771
0.6764
0.6763
0.6774
0.6786
0.6799
0.6813
0.6828
0.6843
0.6858
0.6873
0.6889
0.6904
0.6918
0.6932
0.6946
0.6959
0.6972
0.6985
0.6999
0.7012
0.7025
0.7039
0.7052
0.7066
0.7079
0.7092
0.7104
0.7115
0.7126
0.7135
0.7142
0.7148
0.7145
0.7135
0.711
0.7065
0.7011
0.6943
0.6881
0.6826
0.6785
0.6749
0.673
0.6716
0.6712
0.6707
0.6702
0.6696
0.669
0.6683
0.6677
0.667
0.6662
0.6654
0.6645
0.664
0.6636
0.6637
0.6641
0.6645
0.665
0.6657
0.6664
0.6672
0.6678
0.6683
0.6689
0.6693
0.6698
0.6699
0.6694
0.6688
0.668
0.6671
0.6664
0.6658
0.6646
0.6631
0.6613
0.6601
0.6594
0.6595
0.6599
0.6601
0.6604
0.6609
0.6615
0.6624
0.6635
0.6647
0.6662
0.6678
0.6696
0.6715
0.6736
0.6757
0.6779
0.6801
0.6821
0.6841
0.6858
0.6873
0.6885
0.6892
0.6895
0.6894
0.6888
0.6854
0.1811
0.2477
0.3606
0.5211
0.6159
0.6616
0.6658
0.6555
0.6361
0.6238
0.6178
0.6187
0.6229
0.6324
0.6398
0.6483
0.6551
0.6563
0.6524
0.6446
0.6338
0.6225
0.6124
0.6044
0.5995
0.5983
0.5991
0.6012
0.604
0.6071
0.6104
0.6137
0.617
0.6202
0.623
0.6251
0.6274
0.6296
0.6321
0.6341
0.6359
0.6369
0.6378
0.6386
0.6395
0.6398
0.6401
0.6403
0.6409
0.642
0.6437
0.6456
0.6475
0.6495
0.6515
0.6536
0.6557
0.6579
0.6601
0.6622
0.6643
0.6664
0.6684
0.6703
0.6722
0.6741
0.676
0.6778
0.6797
0.6815
0.6833
0.6851
0.6869
0.6886
0.6903
0.6919
0.6935
0.6951
0.6965
0.6978
0.6989
0.6998
0.6999
0.6993
0.6971
0.6942
0.6897
0.684
0.6772
0.671
0.6653
0.6618
0.6599
0.6587
0.6584
0.658
0.6577
0.6572
0.6568
0.6563
0.6558
0.6552
0.6546
0.6539
0.6532
0.6528
0.6525
0.6528
0.6532
0.6543
0.6552
0.6563
0.657
0.6577
0.6581
0.6587
0.6592
0.6596
0.66
0.6602
0.6603
0.66
0.6595
0.6589
0.6582
0.6576
0.6571
0.6565
0.6555
0.6542
0.6529
0.6522
0.652
0.6524
0.6529
0.6533
0.6539
0.6546
0.6556
0.6567
0.6579
0.6593
0.6608
0.6625
0.6643
0.6661
0.668
0.6699
0.6718
0.6735
0.6752
0.6768
0.6781
0.6792
0.6801
0.6807
0.6809
0.6786
0.6745
0.6653
0.1961
0.2744
0.4061
0.5646
0.6539
0.6978
0.6992
0.6823
0.6575
0.6354
0.6238
0.6254
0.6344
0.6481
0.6564
0.6582
0.6551
0.6441
0.6262
0.6042
0.5809
0.5601
0.5428
0.5297
0.5214
0.5183
0.5183
0.5206
0.5244
0.5292
0.5345
0.5402
0.5461
0.5519
0.5573
0.562
0.5667
0.5711
0.5752
0.5791
0.5826
0.5851
0.5877
0.5902
0.5927
0.5952
0.5979
0.6007
0.6036
0.6065
0.6096
0.6127
0.6157
0.6188
0.6219
0.6249
0.6279
0.6308
0.6337
0.6366
0.6393
0.642
0.6446
0.6472
0.6498
0.6524
0.6548
0.6573
0.6598
0.6621
0.6645
0.6668
0.669
0.6711
0.6732
0.6751
0.677
0.6787
0.6803
0.6818
0.6831
0.6835
0.682
0.6793
0.6746
0.6696
0.6637
0.658
0.6522
0.6479
0.6446
0.6435
0.6433
0.6431
0.6429
0.6427
0.6424
0.6422
0.6418
0.6415
0.641
0.6405
0.6399
0.6397
0.6395
0.64
0.6407
0.6419
0.643
0.6447
0.6458
0.6467
0.6472
0.6477
0.6476
0.6477
0.648
0.6484
0.6489
0.6493
0.6492
0.6489
0.6483
0.6478
0.6474
0.6472
0.6469
0.6464
0.6453
0.6441
0.6433
0.643
0.6432
0.6439
0.6445
0.6451
0.646
0.647
0.6481
0.6494
0.6508
0.6523
0.6539
0.6556
0.6573
0.659
0.6607
0.6624
0.664
0.6655
0.667
0.6683
0.6695
0.6706
0.6694
0.6666
0.6629
0.6554
0.6464
0.6329
0.2176
0.3093
0.4545
0.6042
0.6864
0.725
0.7229
0.7062
0.6839
0.6597
0.6468
0.6443
0.6532
0.6646
0.6697
0.6633
0.6488
0.6231
0.5885
0.5494
0.5128
0.4837
0.4614
0.444
0.4326
0.4276
0.427
0.4302
0.4364
0.4443
0.4531
0.4623
0.4716
0.4808
0.4894
0.4972
0.5045
0.5112
0.5173
0.5229
0.528
0.5324
0.5367
0.541
0.5453
0.5495
0.5537
0.558
0.5624
0.5669
0.5713
0.5758
0.5801
0.5843
0.5884
0.5925
0.5964
0.6002
0.604
0.6076
0.6112
0.6147
0.6182
0.6215
0.6249
0.6282
0.6314
0.6346
0.6377
0.6406
0.6435
0.6463
0.649
0.6515
0.654
0.6562
0.6583
0.6603
0.6622
0.6645
0.6667
0.6675
0.6657
0.6621
0.6559
0.649
0.6419
0.6357
0.6303
0.6273
0.6262
0.6261
0.626
0.6259
0.6259
0.6259
0.6258
0.6257
0.6254
0.6252
0.6248
0.6244
0.6244
0.625
0.626
0.6276
0.6292
0.6311
0.6324
0.6338
0.6347
0.6353
0.6354
0.6352
0.6347
0.6348
0.6354
0.6362
0.6369
0.6371
0.6369
0.6364
0.636
0.6358
0.6358
0.636
0.6357
0.635
0.6339
0.633
0.6325
0.6327
0.6332
0.634
0.6348
0.6357
0.6368
0.638
0.6394
0.6408
0.6423
0.6439
0.6455
0.6471
0.6488
0.6504
0.6519
0.6534
0.6549
0.6563
0.6577
0.6591
0.6584
0.6564
0.6499
0.6414
0.6325
0.6213
0.6082
0.5903
0.2445
0.3512
0.4952
0.6317
0.7079
0.7403
0.7402
0.7276
0.7117
0.6887
0.6737
0.6665
0.671
0.6774
0.679
0.6636
0.6366
0.5951
0.5418
0.4856
0.4349
0.3956
0.3663
0.3446
0.3318
0.3265
0.3261
0.3304
0.339
0.3505
0.3641
0.3789
0.3935
0.4074
0.4202
0.4319
0.4421
0.4509
0.4583
0.4648
0.4707
0.4763
0.4819
0.4876
0.4934
0.4993
0.5051
0.511
0.5169
0.523
0.5289
0.5348
0.5404
0.546
0.5514
0.5566
0.5616
0.5665
0.5713
0.576
0.5805
0.585
0.5893
0.5936
0.5978
0.602
0.6059
0.6098
0.6135
0.6171
0.6206
0.6239
0.627
0.63
0.6329
0.6356
0.6381
0.641
0.6439
0.6475
0.651
0.6526
0.6511
0.6473
0.6421
0.6352
0.6292
0.6241
0.6185
0.614
0.6113
0.6089
0.6075
0.6076
0.6077
0.6078
0.6079
0.6079
0.6079
0.6079
0.6081
0.6085
0.6095
0.6112
0.6132
0.6157
0.6176
0.6193
0.6203
0.6212
0.6213
0.6213
0.6209
0.6206
0.6206
0.6212
0.6221
0.6231
0.6237
0.6237
0.6234
0.6231
0.623
0.6232
0.6236
0.6238
0.6234
0.6225
0.6213
0.6207
0.6207
0.6213
0.6221
0.623
0.624
0.6252
0.6265
0.6278
0.6293
0.6308
0.6324
0.634
0.6357
0.6373
0.6388
0.6403
0.6418
0.6431
0.6445
0.646
0.6457
0.6442
0.6385
0.6312
0.6189
0.6062
0.5916
0.5777
0.5627
0.5469
0.28
0.3986
0.5305
0.6528
0.7246
0.7543
0.7555
0.7483
0.7367
0.714
0.696
0.6858
0.6861
0.688
0.6848
0.6598
0.6201
0.5625
0.491
0.4158
0.3491
0.3026
0.2729
0.253
0.2413
0.236
0.236
0.2408
0.2494
0.2605
0.2738
0.2892
0.3057
0.323
0.3401
0.3566
0.3714
0.384
0.3943
0.4045
0.4144
0.424
0.4331
0.4415
0.4487
0.4559
0.4631
0.469
0.4742
0.4791
0.4844
0.4904
0.4975
0.5044
0.5112
0.5178
0.5242
0.5304
0.5364
0.5423
0.5479
0.5534
0.5587
0.5639
0.5689
0.5739
0.5786
0.5832
0.5876
0.5918
0.5959
0.5998
0.6036
0.6073
0.6107
0.6143
0.6179
0.6222
0.6265
0.6315
0.6359
0.6387
0.6383
0.6365
0.6337
0.6294
0.6255
0.621
0.6153
0.6096
0.6041
0.598
0.5926
0.5901
0.5886
0.5888
0.5891
0.5894
0.5901
0.5909
0.5923
0.5938
0.5957
0.5981
0.6007
0.6029
0.6047
0.6058
0.6061
0.6062
0.606
0.6057
0.6055
0.6057
0.6062
0.6072
0.6083
0.609
0.6093
0.6093
0.6092
0.6093
0.6097
0.6101
0.6104
0.6104
0.6096
0.6085
0.6077
0.6075
0.6079
0.6089
0.6099
0.611
0.6122
0.6136
0.615
0.6165
0.6181
0.6197
0.6213
0.6229
0.6245
0.6261
0.6276
0.6289
0.6303
0.6317
0.6333
0.6332
0.6286
0.6217
0.6095
0.5961
0.5786
0.5636
0.5487
0.5355
0.5214
0.5104
0.3174
0.4419
0.56
0.6703
0.7378
0.7676
0.7701
0.7682
0.7587
0.7364
0.7177
0.7055
0.7014
0.6979
0.6875
0.6527
0.6004
0.5274
0.4384
0.3429
0.2714
0.2248
0.1944
0.1751
0.1645
0.1607
0.162
0.1679
0.1769
0.1883
0.2013
0.2164
0.2325
0.25
0.268
0.2854
0.3017
0.3163
0.3302
0.3455
0.3615
0.377
0.3906
0.4016
0.4101
0.4186
0.4269
0.4328
0.4375
0.4417
0.4466
0.4514
0.4576
0.4636
0.47
0.477
0.4849
0.4926
0.5
0.5071
0.5139
0.5205
0.5268
0.5329
0.5388
0.5445
0.55
0.5554
0.5607
0.5658
0.5707
0.5753
0.5796
0.5842
0.5889
0.5941
0.5992
0.605
0.6102
0.6161
0.6209
0.6242
0.6257
0.6265
0.6267
0.6252
0.6235
0.6211
0.6164
0.6111
0.6034
0.5938
0.5835
0.5763
0.5709
0.5695
0.5705
0.5716
0.5735
0.5755
0.578
0.5801
0.5827
0.585
0.5873
0.5888
0.5898
0.5901
0.59
0.5899
0.5897
0.5897
0.59
0.5906
0.5916
0.5927
0.5936
0.5941
0.5943
0.5945
0.5948
0.5954
0.5959
0.5962
0.5961
0.5955
0.5944
0.5936
0.5933
0.5936
0.5945
0.5956
0.5967
0.598
0.5994
0.6009
0.6024
0.604
0.6057
0.6073
0.609
0.6106
0.6122
0.6136
0.615
0.6164
0.6178
0.6195
0.6195
0.6154
0.6047
0.5907
0.571
0.5539
0.5375
0.5238
0.5103
0.5012
0.4932
0.4871
0.3493
0.4692
0.5766
0.682
0.7491
0.779
0.7843
0.7856
0.7761
0.7544
0.7359
0.7221
0.7145
0.7059
0.6878
0.6432
0.579
0.4906
0.3801
0.2744
0.2046
0.1591
0.1307
0.1138
0.1052
0.1029
0.1053
0.1119
0.1214
0.1329
0.1453
0.1592
0.1741
0.1906
0.2082
0.2261
0.2434
0.2591
0.2753
0.2937
0.3133
0.3338
0.3517
0.3654
0.3757
0.3856
0.3951
0.4015
0.4062
0.4094
0.4141
0.4183
0.4241
0.4296
0.4347
0.4403
0.4476
0.4551
0.4629
0.4714
0.4796
0.4875
0.495
0.5022
0.509
0.5156
0.522
0.5283
0.5344
0.5401
0.5456
0.5507
0.556
0.5621
0.5685
0.5754
0.582
0.5888
0.5944
0.6
0.6046
0.6088
0.6119
0.6147
0.6171
0.618
0.6181
0.6178
0.6153
0.612
0.6061
0.5958
0.5812
0.5686
0.5582
0.5532
0.5534
0.5557
0.5586
0.5613
0.5644
0.5667
0.5691
0.5707
0.5721
0.5727
0.5731
0.5731
0.5732
0.5732
0.5733
0.5736
0.5744
0.5754
0.5767
0.5777
0.5783
0.5788
0.5791
0.5796
0.5803
0.581
0.5812
0.581
0.5802
0.579
0.5781
0.5778
0.5782
0.579
0.5802
0.5814
0.5827
0.5841
0.5856
0.5872
0.5889
0.5905
0.5922
0.5939
0.5955
0.5971
0.5986
0.6
0.6015
0.603
0.6047
0.6049
0.6008
0.5906
0.5732
0.5519
0.5312
0.5144
0.5025
0.4946
0.4877
0.4832
0.4774
0.4696
0.3669
0.4812
0.5839
0.6884
0.7562
0.7869
0.7964
0.7995
0.7906
0.77
0.7519
0.7366
0.726
0.7126
0.6866
0.6327
0.556
0.4506
0.3176
0.2161
0.1495
0.1082
0.08405
0.07077
0.06469
0.06378
0.06679
0.0731
0.08195
0.09263
0.1044
0.1167
0.1298
0.1442
0.16
0.1769
0.1942
0.2106
0.2281
0.248
0.27
0.2917
0.3113
0.3261
0.338
0.3495
0.3608
0.3689
0.3751
0.3803
0.386
0.3904
0.3958
0.4001
0.4044
0.4094
0.4165
0.4232
0.4302
0.4385
0.4469
0.4555
0.4644
0.4729
0.4809
0.4884
0.4955
0.5024
0.5091
0.5153
0.5217
0.528
0.5348
0.5426
0.5505
0.5586
0.5659
0.5723
0.5776
0.5826
0.5866
0.5902
0.5934
0.5964
0.5995
0.6024
0.6052
0.608
0.6092
0.6091
0.6057
0.5974
0.5822
0.5644
0.5489
0.5398
0.538
0.5413
0.5448
0.5476
0.5505
0.5524
0.554
0.5548
0.5554
0.5557
0.5559
0.5561
0.5562
0.5564
0.5569
0.5576
0.5588
0.5603
0.5615
0.5624
0.563
0.5634
0.5639
0.5648
0.5654
0.5657
0.5653
0.5643
0.5629
0.5619
0.5615
0.5618
0.5627
0.5639
0.5651
0.5665
0.5679
0.5694
0.571
0.5726
0.5743
0.576
0.5777
0.5793
0.581
0.5826
0.5842
0.5857
0.5873
0.589
0.5891
0.5853
0.5753
0.5583
0.5349
0.5131
0.496
0.4851
0.4794
0.4758
0.4709
0.465
0.4573
0.4475
0.3797
0.4878
0.5904
0.6935
0.7635
0.7946
0.8074
0.8104
0.8022
0.7831
0.7658
0.7495
0.7363
0.7184
0.6847
0.6223
0.5331
0.4095
0.2654
0.17
0.1087
0.07348
0.05422
0.04435
0.04022
0.04002
0.04285
0.04826
0.05584
0.06515
0.07557
0.0866
0.09789
0.1101
0.1235
0.1384
0.1543
0.1704
0.1878
0.2074
0.2289
0.2502
0.2699
0.2855
0.2984
0.3109
0.3227
0.3326
0.341
0.3485
0.356
0.3621
0.3684
0.3741
0.3786
0.3834
0.3894
0.3955
0.4021
0.41
0.4181
0.4268
0.4365
0.446
0.4551
0.4633
0.471
0.4782
0.485
0.492
0.4998
0.5077
0.5163
0.5255
0.5342
0.5419
0.549
0.5547
0.5594
0.5638
0.5676
0.5714
0.5751
0.5788
0.5824
0.5859
0.5891
0.5923
0.5951
0.5977
0.5981
0.5952
0.5818
0.5633
0.5433
0.5294
0.5239
0.5276
0.5307
0.5331
0.5351
0.5362
0.5371
0.5376
0.538
0.5384
0.5388
0.539
0.5393
0.5398
0.5407
0.542
0.5437
0.5452
0.5463
0.547
0.5474
0.548
0.5485
0.549
0.549
0.5486
0.5476
0.5462
0.545
0.5446
0.5448
0.5457
0.5469
0.5481
0.5494
0.5508
0.5523
0.5539
0.5555
0.5572
0.5589
0.5605
0.5623
0.564
0.5657
0.5675
0.5692
0.5708
0.5725
0.5726
0.5687
0.559
0.5423
0.5196
0.4983
0.4818
0.4713
0.4659
0.4627
0.4581
0.4512
0.4431
0.4332
0.4218
0.3956
0.4952
0.5964
0.699
0.7683
0.8
0.8157
0.819
0.8117
0.7943
0.7778
0.7609
0.7455
0.7237
0.6828
0.6124
0.5114
0.3695
0.2255
0.1365
0.08117
0.0517
0.03662
0.02937
0.02661
0.02679
0.0292
0.03353
0.03964
0.04732
0.05619
0.06584
0.07588
0.08614
0.09733
0.1098
0.1235
0.1382
0.1545
0.1721
0.1904
0.2088
0.226
0.2407
0.2541
0.267
0.2794
0.2911
0.3022
0.3127
0.3226
0.3309
0.3382
0.3452
0.3512
0.3573
0.3647
0.371
0.3776
0.3847
0.3924
0.401
0.4112
0.4213
0.4312
0.4402
0.4481
0.456
0.4638
0.4722
0.4816
0.4909
0.5005
0.5098
0.5179
0.5247
0.531
0.5359
0.5404
0.545
0.5496
0.5541
0.5584
0.5626
0.5665
0.5701
0.5733
0.5762
0.5788
0.5821
0.5857
0.5887
0.5785
0.561
0.5382
0.52
0.5096
0.5131
0.5154
0.517
0.5182
0.519
0.5197
0.5203
0.5209
0.5214
0.5218
0.5223
0.5231
0.5241
0.5256
0.5273
0.5288
0.5301
0.531
0.5313
0.5314
0.5316
0.5315
0.5314
0.531
0.5301
0.5286
0.5277
0.5272
0.5274
0.5282
0.5293
0.5305
0.5317
0.5331
0.5345
0.536
0.5376
0.5393
0.5409
0.5427
0.5444
0.5463
0.5481
0.55
0.5518
0.5536
0.5536
0.5526
0.5483
0.539
0.5237
0.5032
0.4825
0.4665
0.4564
0.4513
0.4475
0.4427
0.4359
0.4267
0.4166
0.4054
0.3942
0.4097
0.5033
0.6026
0.7044
0.7725
0.8047
0.8222
0.8261
0.8198
0.8041
0.7882
0.771
0.7538
0.7284
0.6812
0.6036
0.4921
0.3354
0.1971
0.114
0.06399
0.03896
0.02683
0.0213
0.01935
0.01967
0.02169
0.02518
0.03002
0.0362
0.04354
0.05179
0.0606
0.06956
0.0788
0.08901
0.1005
0.1133
0.1277
0.1429
0.1585
0.1741
0.189
0.203
0.2162
0.2292
0.2417
0.2536
0.265
0.2756
0.2857
0.2953
0.3047
0.3139