/*--------------------------------*- C++ -*----------------------------------*\
| =========                 |                                                 |
| \\      /  F ield         | OpenFOAM: The Open Source CFD Toolbox           |
|  \\    /   O peration     | Version:  5.x                                   |
|   \\  /    A nd           | Web:      www.OpenFOAM.org                      |
|    \\/     M anipulation  |                                                 |
\*---------------------------------------------------------------------------*/
FoamFile
{
    version     2.0;
    format      ascii;
    class       volScalarField;
    location    "155";
    object      gamma;
}
// * * * * * * * * * * * * * * * * * * * * * * * * * * * * * * * * * * * * * //

dimensions      [0 0 0 0 0 0 0];

internalField   nonuniform List<scalar> 
86400
(
5.024e-07
6.32e-07
1.015e-06
1.995e-06
4.578e-06
7.536e-06
8.973e-06
1.005e-05
1.144e-05
1.057e-05
1.444e-05
1.607e-05
1.627e-05
1.105e-05
8.152e-06
8.461e-06
2.089e-05
6.054e-05
0.0001287
0.0001945
0.0002688
0.0004055
0.0008855
0.001237
0.00132
0.001734
0.001614
0.001603
0.001525
0.001366
0.001155
0.001059
0.00108
0.001226
0.001656
0.002746
0.003882
0.004691
0.003988
0.003783
0.003171
0.003181
0.002836
0.002053
0.001846
0.002218
0.00336
0.004653
0.006229
0.005713
0.005647
0.005925
0.006417
0.0073
0.008193
0.01012
0.01259
0.0134
0.01251
0.01119
0.008934
0.008771
0.008605
0.00941
0.01211
0.01648
0.01782
0.01798
0.01399
0.01253
0.01496
0.0214
0.02494
0.02289
0.02063
0.01912
0.01732
0.01975
0.02353
0.02266
0.0217
0.01903
0.01788
0.02024
0.02713
0.03051
0.03234
0.02949
0.02946
0.02868
0.02345
0.02346
0.02483
0.03186
0.03546
0.03729
0.03047
0.028
0.02679
0.02504
0.02259
0.01694
0.01243
0.008115
0.005412
0.005434
0.007851
0.01152
0.009273
0.005484
0.002639
0.001715
0.001724
0.002062
0.002073
0.001908
0.001758
0.001648
0.001642
0.001657
0.001643
0.001584
0.001426
0.001221
0.001086
0.001035
0.0009674
0.000931
0.000893
0.0008254
0.0007215
0.000802
0.0007149
0.0004985
0.0003601
0.0002786
0.000296
0.0004268
0.0002691
8.914e-05
3.146e-05
1.532e-05
1.39e-05
9.832e-06
2.711e-06
4.914e-07
1.131e-07
2.399e-08
1.151e-08
1.667e-08
2.921e-08
2.093e-07
2.834e-06
2.461e-05
0.0001177
0.0003861
0.0005149
0.001036
0.1249
0.9979
6.523e-07
6.97e-07
1.009e-06
1.746e-06
4.131e-06
6.852e-06
7.854e-06
7.541e-06
6.116e-06
4.719e-06
6.393e-06
8.725e-06
1.331e-05
1.599e-05
1.354e-05
1.044e-05
2.149e-05
6.024e-05
0.0001543
0.0004086
0.0006688
0.0009095
0.001443
0.00197
0.002177
0.002433
0.002437
0.002521
0.002711
0.002241
0.00192
0.001792
0.001933
0.002314
0.003305
0.005475
0.008365
0.01126
0.01093
0.01056
0.008481
0.007545
0.006747
0.005059
0.003848
0.004024
0.004922
0.006323
0.008858
0.009712
0.01049
0.01204
0.01437
0.01662
0.01425
0.01159
0.009471
0.007564
0.006177
0.006144
0.005411
0.005245
0.004805
0.004742
0.005373
0.008257
0.01017
0.01206
0.01106
0.01172
0.01507
0.02041
0.01726
0.01271
0.008936
0.009159
0.01263
0.02074
0.02796
0.02757
0.02446
0.021
0.02245
0.02683
0.03858
0.04613
0.0525
0.0497
0.05311
0.05769
0.05562
0.05862
0.05886
0.05551
0.04851
0.04044
0.02977
0.0251
0.02283
0.02043
0.02029
0.02079
0.02285
0.02071
0.01421
0.01141
0.01299
0.01615
0.01508
0.01048
0.004864
0.002879
0.002131
0.00191
0.001674
0.00169
0.002159
0.003252
0.004657
0.005359
0.005645
0.005629
0.005189
0.004498
0.004054
0.00393
0.00364
0.003439
0.003229
0.002966
0.002655
0.002428
0.001722
0.001151
0.0008737
0.0006315
0.0005785
0.0005856
0.0003304
9.974e-05
4.243e-05
1.686e-05
9.395e-06
5.524e-06
1.918e-06
7.292e-07
3.462e-07
2.096e-07
3.186e-07
6.667e-07
1.539e-06
7.357e-06
4.247e-05
0.0002235
0.001432
0.009531
0.04413
0.4819
0.9124
0.9987
1.022e-06
9.928e-07
1.296e-06
1.894e-06
4.105e-06
6.243e-06
6.488e-06
5.522e-06
3.631e-06
3.172e-06
4.602e-06
9.066e-06
1.586e-05
2.596e-05
2.168e-05
1.992e-05
4.677e-05
0.0001403
0.0002744
0.0006618
0.0007769
0.0009392
0.001477
0.002224
0.002195
0.002807
0.003372
0.004299
0.005696
0.005322
0.004413
0.00468
0.004788
0.004725
0.004906
0.005753
0.007197
0.008941
0.007292
0.006545
0.005175
0.005179
0.005064
0.004921
0.004153
0.004744
0.006647
0.009133
0.0131
0.01583
0.01386
0.01103
0.009022
0.007888
0.00585
0.005463
0.004673
0.003629
0.002867
0.002937
0.002934
0.003187
0.00342
0.004172
0.004331
0.005351
0.006269
0.007576
0.007364
0.008927
0.01099
0.01122
0.007555
0.006152
0.00579
0.009415
0.01904
0.03517
0.04585
0.04808
0.04212
0.03373
0.03516
0.04119
0.06272
0.07407
0.08497
0.08414
0.0749
0.0616
0.04525
0.03423
0.02518
0.02502
0.02439
0.02367
0.02213
0.02191
0.01942
0.01787
0.01975
0.02447
0.03275
0.034
0.02736
0.02291
0.02099
0.02392
0.02322
0.01709
0.01018
0.007596
0.004988
0.00397
0.003392
0.003706
0.00445
0.005795
0.00661
0.005894
0.005457
0.005764
0.005473
0.004853
0.004407
0.004208
0.0038
0.003475
0.003119
0.002968
0.002903
0.002502
0.001484
0.0007412
0.0004723
0.0003483
0.0004137
0.0005133
0.0003807
0.000155
6.355e-05
2.895e-05
2.182e-05
1.58e-05
8.284e-06
4.122e-06
2.367e-06
2.337e-06
6.079e-06
1.751e-05
3.868e-05
0.0001181
0.0005533
0.003043
0.02097
0.1894
0.7697
0.9744
0.998
1
1.678e-06
1.587e-06
1.707e-06
1.998e-06
3.575e-06
4.593e-06
3.936e-06
2.934e-06
2.011e-06
2.395e-06
3.254e-06
3.95e-06
4.201e-06
9.977e-06
1.239e-05
2.004e-05
4.958e-05
8.395e-05
8.391e-05
0.0001119
0.0001032
8.721e-05
0.0001825
0.0003495
0.0003639
0.0005882
0.001005
0.001631
0.002927
0.003746
0.003211
0.004268
0.005168
0.005636
0.005623
0.00581
0.006217
0.007496
0.005409
0.004943
0.004583
0.005488
0.007562
0.009655
0.006507
0.005209
0.004191
0.004062
0.004898
0.006584
0.005174
0.003644
0.00317
0.002966
0.002258
0.002185
0.001738
0.001351
0.001258
0.001631
0.001942
0.002537
0.003163
0.003587
0.003449
0.004068
0.004319
0.004834
0.004904
0.007274
0.01094
0.01101
0.008189
0.007584
0.006307
0.01117
0.02255
0.03548
0.03564
0.03783
0.03206
0.02711
0.02779
0.02942
0.03452
0.03664
0.03973
0.03938
0.03942
0.04232
0.04525
0.04492
0.03501
0.03401
0.03045
0.02799
0.02718
0.02853
0.02523
0.02548
0.02621
0.02776
0.03952
0.04255
0.03156
0.02464
0.0173
0.01743
0.01771
0.01697
0.01058
0.008949
0.005467
0.004018
0.003322
0.004297
0.006422
0.009699
0.01131
0.009733
0.008381
0.009192
0.008998
0.008203
0.007578
0.007231
0.00651
0.005934
0.005562
0.005512
0.005728
0.004883
0.002744
0.00132
0.0007531
0.0003738
0.0002907
0.000225
0.0001737
0.0001161
6.056e-05
2.979e-05
2.474e-05
2.238e-05
2.058e-05
1.956e-05
2.255e-05
4.003e-05
0.0001727
0.0006678
0.002242
0.006374
0.02151
0.09686
0.5743
0.9217
0.9927
0.9997
1
1
3.33e-06
3.587e-06
3.472e-06
3.626e-06
4.522e-06
3.992e-06
2.212e-06
1.769e-06
1.552e-06
2.405e-06
2.74e-06
1.785e-06
9.499e-07
2.396e-06
4.208e-06
1.707e-05
8.047e-05
6.448e-05
2.106e-05
1.762e-05
1.791e-05
1.619e-05
5.265e-05
9.707e-05
0.0001076
0.0002556
0.0007635
0.002371
0.005599
0.00625
0.002907
0.002396
0.002054
0.002003
0.002068
0.002001
0.001681
0.002315
0.002439
0.003534
0.003453
0.003317
0.002064
0.001447
0.0006799
0.0005093
0.0003546
0.0003927
0.0006681
0.001558
0.001891
0.001967
0.001755
0.001855
0.001616
0.001718
0.001514
0.001273
0.0016
0.00268
0.004082
0.006126
0.008862
0.01008
0.00733
0.005322
0.004372
0.00382
0.00343
0.004745
0.00712
0.006327
0.006151
0.007409
0.00842
0.01261
0.02205
0.02365
0.02008
0.02309
0.02015
0.01693
0.01802
0.02125
0.02768
0.03455
0.03845
0.03433
0.03066
0.03094
0.03075
0.03753
0.03454
0.03546
0.02955
0.02912
0.02151
0.02115
0.02031
0.01833
0.01266
0.007252
0.00616
0.006756
0.007553
0.01239
0.01415
0.01298
0.01246
0.01759
0.01325
0.01328
0.00914
0.00724
0.005498
0.005256
0.004814
0.004804
0.003816
0.003398
0.00289
0.003172
0.003131
0.002983
0.002883
0.002843
0.002667
0.002541
0.002519
0.002654
0.002884
0.002304
0.001196
0.0005763
0.0002258
9.106e-05
6.416e-05
6.901e-05
6.186e-05
5.559e-05
4.063e-05
3.32e-05
4.267e-05
6.494e-05
0.0001168
0.0002074
0.0003752
0.0009189
0.004552
0.01484
0.04581
0.1347
0.4561
0.8478
0.9756
0.9981
0.9999
1
1
1
4.849e-06
6.689e-06
6.422e-06
6.684e-06
4.947e-06
3.096e-06
1.387e-06
1.279e-06
1.704e-06
4.026e-06
4.8e-06
1.675e-06
4.89e-07
8.578e-07
3.74e-06
2.151e-05
8.669e-05
4.515e-05
1.279e-05
1.325e-05
2.498e-05
3.189e-05
0.0001197
6.76e-05
3.12e-05
3.56e-05
8.984e-05
0.0003283
0.001505
0.001611
0.0006182
0.0004184
0.0003534
0.0003829
0.0006456
0.0007654
0.0004948
0.0005362
0.0005906
0.0005823
0.0003299
0.0002027
6.485e-05
2.837e-05
1.245e-05
4.878e-06
1.064e-06
9.378e-07
1.823e-06
6.957e-06
1.519e-05
3.715e-05
7.53e-05
0.0001293
0.0001654
0.0001591
0.0001216
0.0001429
0.0004683
0.001685
0.0045
0.006637
0.005798
0.0049
0.003205
0.002267
0.003397
0.00456
0.004627
0.006729
0.01057
0.008351
0.007851
0.008315
0.00691
0.006848
0.006111
0.0054
0.005213
0.008325
0.01186
0.01972
0.02814
0.0388
0.05037
0.05754
0.05297
0.04202
0.03802
0.04512
0.04818
0.03552
0.01575
0.006892
0.002546
0.001568
0.0008586
0.0009092
0.0009381
0.001398
0.001564
0.001365
0.001153
0.001129
0.001121
0.002031
0.002451
0.003481
0.004808
0.005107
0.003316
0.003282
0.00273
0.002739
0.002333
0.002129
0.001818
0.001709
0.001457
0.001384
0.001152
0.001161
0.001101
0.001064
0.001037
0.001004
0.0009613
0.0009233
0.0009018
0.0009136
0.0009603
0.0008503
0.0005996
0.0004401
0.0002336
0.0001058
6.012e-05
5.309e-05
5.615e-05
7.411e-05
8.151e-05
9.167e-05
0.0001515
0.000341
0.001051
0.002952
0.007248
0.01945
0.06527
0.2082
0.6158
0.8655
0.9665
0.9961
0.9997
1
1
1
1
1
5.518e-06
9.709e-06
8.483e-06
7.505e-06
4.452e-06
2.597e-06
1.154e-06
1.754e-06
4.936e-06
1.546e-05
1.588e-05
4.125e-06
5.14e-07
5.609e-07
1.377e-06
1.201e-05
8.275e-05
0.0001041
5.157e-05
7.953e-05
0.0002128
0.0002619
0.0006225
0.0001263
3.188e-05
1.952e-05
3.65e-05
0.0001055
0.0006439
0.0007242
0.0002836
0.000133
0.000125
0.0001833
0.0003602
0.0003862
0.000167
0.0001334
0.000201
0.0002067
7.694e-05
2.257e-05
2.804e-06
5.927e-07
2.301e-07
4.011e-08
4.555e-09
3.129e-09
6.403e-09
3.991e-08
1.457e-07
5.004e-07
1.463e-06
3.789e-06
6.425e-06
6.878e-06
6.648e-06
1.283e-05
0.0001019
0.0006217
0.002962
0.005827
0.00525
0.00553
0.005687
0.004267
0.007712
0.01114
0.01065
0.01027
0.01481
0.007287
0.004545
0.003817
0.003418
0.00418
0.003552
0.0027
0.001734
0.001979
0.00301
0.00802
0.01555
0.02156
0.03424
0.04679
0.05311
0.0549
0.0754
0.1161
0.09735
0.06678
0.02567
0.008187
0.001916
0.000944
0.0003766
0.0003507
0.0002662
0.0005025
0.0006687
0.0006135
0.0005854
0.0003726
0.0002121
0.0002017
0.000207
0.0002205
0.0005316
0.0007472
0.0008876
0.001268
0.001399
0.001722
0.001762
0.001629
0.001146
0.0009416
0.0007361
0.0007966
0.0007636
0.0007583
0.0006901
0.0005917
0.0005286
0.0004833
0.0004538
0.0004283
0.0004103
0.0003929
0.0004075
0.0004464
0.0004534
0.0004747
0.0003577
0.0002475
0.0002387
0.0003292
0.0005043
0.001031
0.001877
0.003219
0.006516
0.01595
0.04099
0.0985
0.2508
0.5607
0.8185
0.9435
0.9868
0.9979
0.9997
1
1
1
1
1
1
1
8.619e-06
1.448e-05
9.672e-06
7.514e-06
4.812e-06
3.098e-06
2.001e-06
5.732e-06
1.51e-05
2.563e-05
2.544e-05
5.501e-06
6.421e-07
5.764e-07
1.201e-06
8.12e-06
6.367e-05
0.0001924
0.000363
0.00164
0.004096
0.004196
0.005556
0.001055
0.0001792
3.698e-05
4.56e-05
7.95e-05
0.0003699
0.0005082
0.0002849
0.0002451
0.0002454
0.00037
0.0005831
0.0005279
0.0002125
0.000204
0.0004463
0.0002398
5.105e-05
6.118e-06
6.397e-07
8.535e-08
3.923e-08
4e-09
3.235e-10
1.93e-10
4.562e-10
3.278e-09
1.65e-08
9.328e-08
5.424e-07
2.436e-06
4.256e-06
1.985e-06
9.148e-07
1.148e-06
8.757e-06
7.796e-05
0.0007964
0.003035
0.003974
0.005427
0.006955
0.006014
0.01021
0.01136
0.007053
0.003039
0.002496
0.001223
0.0007222
0.0006624
0.0009554
0.001287
0.001317
0.002316
0.00242
0.005029
0.01079
0.04208
0.1127
0.2718
0.4956
0.725
0.8869
0.9468
0.9796
0.9885
0.9839
0.9668
0.9063
0.6685
0.1741
0.04516
0.009661
0.005643
0.002548
0.00185
0.001051
0.001194
0.0005717
0.0001472
3.669e-05
2.295e-05
4.181e-05
6.455e-05
0.0001594
0.0001086
0.0001016
0.0001179
0.0001842
0.0003185
0.0003849
0.0003969
0.0004923
0.0005668
0.0005673
0.0008103
0.0009795
0.001117
0.00116
0.001023
0.0008524
0.0007617
0.0007335
0.0007086
0.0006956
0.0006695
0.0007367
0.0009336
0.001393
0.002155
0.002694
0.002564
0.002665
0.00351
0.00639
0.01635
0.0403
0.08939
0.1991
0.4425
0.7032
0.8851
0.961
0.9891
0.9978
0.9996
0.9999
1
1
1
1
1
1
1
1
1
1.302e-05
1.638e-05
8.94e-06
6.308e-06
4.247e-06
3.554e-06
4.788e-06
1.224e-05
1.955e-05
2.251e-05
1.322e-05
3.854e-06
1.281e-06
1.413e-06
3.116e-06
1.247e-05
3.868e-05
0.0001282
0.0003708
0.0008594
0.002421
0.004639
0.01095
0.005784
0.001741
0.0004721
0.0002188
0.0002463
0.0005751
0.0008495
0.0006484
0.0009066
0.0007994
0.001001
0.0008308
0.0004234
0.0001109
0.0001524
0.0003208
8.447e-05
1.217e-05
1.144e-06
1.613e-07
3.258e-08
3.234e-08
6.452e-09
1.231e-09
8.634e-10
1.899e-09
3.677e-09
1.011e-08
3.424e-08
1.487e-07
5.986e-07
1.186e-06
6.593e-07
2.563e-07
2.579e-07
1.303e-06
1.423e-05
0.0002868
0.002164
0.005525
0.00871
0.008435
0.00387
0.003225
0.002424
0.001178
0.0004376
0.00037
0.0002416
0.0002002
0.000274
0.001105
0.004612
0.0129
0.05305
0.1318
0.4205
0.7388
0.9043
0.9611
0.9835
0.9932
0.9984
0.9997
0.9999
0.9999
0.9999
0.9997
0.9989
0.9967
0.9889
0.9799
0.9641
0.9176
0.812
0.4923
0.1271
0.03816
0.0234
0.007494
0.001234
0.0003152
9.274e-05
7.986e-05
7.036e-05
8.538e-05
2.207e-05
1.34e-05
7.701e-06
9.064e-06
1.823e-05
5.58e-05
0.0001947
0.0005183
0.0006114
0.0004885
0.0004155
0.0004342
0.0006092
0.000799
0.0008538
0.0007699
0.0006854
0.0007304
0.0008184
0.0009568
0.001127
0.001583
0.002712
0.005523
0.01145
0.02231
0.03925
0.07073
0.1432
0.3048
0.5721
0.7605
0.8824
0.9477
0.9805
0.9944
0.9988
0.9997
0.9999
1
1
1
1
1
1
1
1
1
1
1
1
1.065e-05
1.064e-05
6.652e-06
5.187e-06
4.833e-06
6.25e-06
7.96e-06
1.223e-05
1.275e-05
1.112e-05
4.745e-06
2.467e-06
2.128e-06
3.48e-06
1.03e-05
2.508e-05
8.298e-05
0.0001146
0.0001918
0.000166
0.0003445
0.0009612
0.004129
0.007833
0.005568
0.001894
0.00052
0.0004913
0.0005498
0.001099
0.001727
0.003864
0.003659
0.003776
0.001254
0.0004279
0.0001764
0.0002818
0.0002598
3.144e-05
3.227e-06
2.859e-07
7.554e-08
4.368e-08
6.096e-08
2.104e-08
1.276e-08
1.487e-08
1.531e-08
1.024e-08
9.569e-09
1.208e-08
5.93e-08
3.855e-07
9.913e-07
7.946e-07
4.662e-07
4.014e-07
1.191e-06
1.211e-05
0.0001828
0.001745
0.003885
0.004722
0.002878
0.0008741
0.0003812
0.0003301
0.0002696
0.0001954
0.0003513
0.0005152
0.001532
0.006399
0.03551
0.1396
0.4594
0.7772
0.9158
0.9738
0.9937
0.9984
0.9995
0.9998
0.9999
1
1
1
1
1
1
1
1
0.9999
0.9999
0.9998
0.9996
0.9987
0.9942
0.9749
0.9212
0.8458
0.6477
0.1523
0.02331
0.006178
0.00261
0.001216
0.0006116
6.311e-05
1.066e-05
2.139e-06
1.199e-06
8.87e-07
3.73e-06
2.97e-05
0.0001593
0.0003683
0.0004663
0.0003234
0.0004011
0.0009981
0.001783
0.002671
0.003667
0.004633
0.007419
0.01255
0.02022
0.02762
0.04199
0.07007
0.13
0.2836
0.5406
0.7193
0.8428
0.9213
0.9664
0.9894
0.9968
0.999
0.9996
0.9999
1
1
1
1
1
1
1
1
1
1
1
1
1
1
1
1
9.147e-06
7.37e-06
5.907e-06
7.06e-06
1.041e-05
7.913e-06
4.014e-06
2.899e-06
1.953e-06
1.911e-06
1.71e-06
1.761e-06
4.283e-06
1.492e-05
3.429e-05
8.473e-05
0.0001513
8.134e-05
7.414e-05
3.355e-05
6.213e-05
0.0001404
0.001171
0.005699
0.009844
0.005781
0.003729
0.002535
0.001503
0.002112
0.00228
0.002879
0.001825
0.001344
0.0004684
0.0001802
0.000133
0.0003839
0.000245
3.42e-05
2.32e-06
2.758e-07
4.913e-08
2.745e-08
2.444e-08
2.913e-08
1.455e-07
4.453e-07
4.747e-07
1.119e-07
1.74e-08
6.841e-09
3.403e-08
5.016e-07
3.574e-06
1.028e-05
1.036e-05
6.921e-06
1.125e-05
7.858e-05
0.000486
0.001744
0.002138
0.001584
0.0006284
0.0002294
0.000128
0.0002175
0.0004818
0.001036
0.00336
0.01892
0.09297
0.5116
0.8523
0.9524
0.9871
0.9962
0.999
0.9997
0.9999
1
1
1
1
1
1
1
1
1
1
1
1
1
1
1
1
1
0.9999
0.9997
0.999
0.998
0.9952
0.9867
0.9648
0.8895
0.6696
0.2142
0.04309
0.004841
0.0006026
5.766e-05
1.37e-05
5.468e-06
1.907e-05
0.0001392
0.0006796
0.001343
0.001823
0.001251
0.001755
0.005314
0.012
0.02221
0.03752
0.05035
0.07266
0.1306
0.2957
0.5543
0.7824
0.8892
0.9481
0.9789
0.9927
0.9971
0.9989
0.9995
0.9998
0.9999
1
1
1
1
1
1
1
1
1
1
1
1
1
1
1
1
1
1
1
1
8.366e-06
6.571e-06
6.561e-06
9.923e-06
1.618e-05
1.19e-05
3.27e-06
1.413e-06
5.811e-07
1.076e-06
1.455e-06
5.901e-06
2.266e-05
5.041e-05
0.0001083
0.0002937
0.0002842
0.0001774
0.0001065
3.664e-05
6.202e-05
0.0001834
0.001498
0.005922
0.01145
0.00835
0.008933
0.006251
0.004692
0.00474
0.004461
0.003447
0.001584
0.0006826
0.0003982
0.000219
0.0002431
0.0008087
0.0002848
3.145e-05
1.734e-06
1.205e-07
1.421e-08
8.65e-09
4.796e-09
1.226e-08
1.166e-07
1.081e-06
1.254e-06
2.634e-07
2.094e-08
8.297e-09
5.706e-08
1.595e-06
2.101e-05
6.954e-05
9.515e-05
8.813e-05
0.0001026
0.0002688
0.0003281
0.0003301
0.0002204
0.0001721
0.0001031
0.0001514
0.0003298
0.001718
0.01084
0.05951
0.3483
0.8024
0.9455
0.9864
0.9967
0.9991
0.9998
0.9999
1
1
1
1
1
1
1
1
1
1
1
1
1
1
1
1
1
1
1
1
1
1
1
1
0.9999
0.9998
0.9996
0.9987
0.9957
0.9889
0.9668
0.9001
0.7008
0.1747
0.03708
0.0114
0.01304
0.0305
0.05231
0.05578
0.06003
0.0451
0.05695
0.12
0.2265
0.4908
0.7414
0.8839
0.9538
0.9775
0.9905
0.9955
0.9984
0.9993
0.9998
0.9999
1
1
1
1
1
1
1
1
1
1
1
1
1
1
1
1
1
1
1
1
1
1
1
1
1
1
4.264e-06
4.063e-06
4.602e-06
6.846e-06
1.517e-05
1.341e-05
3.273e-06
1.336e-06
1.139e-06
2.385e-06
5.997e-06
3.492e-05
7.641e-05
0.0001525
0.0002467
0.0003665
0.0003289
0.000254
0.00014
5.664e-05
8.686e-05
0.0002444
0.001313
0.003518
0.007544
0.007246
0.01285
0.01151
0.0118
0.009718
0.009998
0.006164
0.003336
0.001859
0.001044
0.0006442
0.0007661
0.001824
0.0004197
5.819e-05
4.259e-06
3.231e-07
2.295e-08
1.564e-08
7.626e-09
2.907e-08
4.575e-07
7.54e-06
7.192e-06
1.823e-06
8.34e-08
2.137e-08
8.489e-08
2.104e-06
2.067e-05
8.454e-05
0.0001574
0.0001826
0.0002241
0.0003192
0.0001995
0.0001287
6.922e-05
0.0001139
0.0002876
0.001547
0.0107
0.1327
0.6936
0.9196
0.9792
0.9949
0.9986
0.9996
0.9999
1
1
1
1
1
1
1
1
1
1
1
1
1
1
1
1
1
1
1
1
1
1
1
1
1
1
1
1
1
1
1
0.9999
0.9998
0.9995
0.9991
0.998
0.9953
0.9901
0.9773
0.9692
0.9693
0.9581
0.9532
0.9585
0.9597
0.9737
0.9854
0.9913
0.9956
0.9983
0.9994
0.9998
0.9999
1
1
1
1
1
1
1
1
1
1
1
1
1
1
1
1
1
1
1
1
1
1
1
1
1
1
1
1
1
1
1
1
4.88e-06
4.311e-06
5.366e-06
6.701e-06
1.501e-05
2.044e-05
7.582e-06
5.396e-06
4.334e-06
9.505e-06
2.387e-05
0.0001054
0.0001407
0.0002024
0.0002012
0.0002348
0.0002511
0.0002314
0.0001747
0.0001537
0.0002822
0.0006394
0.00151
0.002215
0.002704
0.002438
0.005298
0.005626
0.00807
0.01086
0.01387
0.01112
0.009031
0.004851
0.002146
0.0009965
0.0007767
0.00142
0.0006663
0.0002531
3.846e-05
4.858e-06
4.587e-07
3.167e-07
1.784e-07
6.702e-07
5.882e-06
8.166e-05
0.0001031
4.396e-05
3.005e-06
1.026e-06
2.267e-06
1.518e-05
6.97e-05
0.0001267
0.0001349
0.0001465
0.0001378
0.0001665
0.0001459
0.0001615
0.0003089
0.001867
0.01452
0.1753
0.7766
0.9557
0.9894
0.998
0.9996
0.9999
1
1
1
1
1
1
1
1
1
1
1
1
1
1
1
1
1
1
1
1
1
1
1
1
1
1
1
1
1
1
1
1
1
1
1
1
1
1
1
1
1
0.9999
0.9999
0.9998
0.9996
0.9995
0.9997
0.9998
0.9999
0.9999
1
1
1
1
1
1
1
1
1
1
1
1
1
1
1
1
1
1
1
1
1
1
1
1
1
1
1
1
1
1
1
1
1
1
1
1
1
1
1.001e-05
8.466e-06
1.262e-05
7.415e-06
1.171e-05
9.805e-06
6.847e-06
1.344e-05
2.784e-05
2.593e-05
3.507e-05
6.476e-05
9.777e-05
0.0001348
0.0001588
8.978e-05
2.653e-05
8.851e-06
4.322e-06
3.653e-06
1.108e-05
4.832e-05
0.0002189
0.0005538
0.0009479
0.001002
0.001792
0.001797
0.00221
0.002516
0.003483
0.005189
0.008099
0.005997
0.002497
0.0009346
0.0005642
0.001117
0.001098
0.001099
0.0004944
0.0001352
2.507e-05
1.937e-05
1.121e-05
4.135e-05
0.0001671
0.001118
0.001581
0.0009752
0.0001645
4.924e-05
4.284e-05
6.636e-05
0.0001234
0.000101
8.476e-05
8.314e-05
0.0001115
0.0002442
0.0007337
0.002674
0.01567
0.2022
0.7927
0.9533
0.9909
0.9987
0.9997
0.9999
1
1
1
1
1
1
1
1
1
1
1
1
1
1
1
1
1
1
1
1
1
1
1
1
1
1
1
1
1
1
1
1
1
1
1
1
1
1
1
1
1
1
1
1
1
1
1
1
1
1
1
1
1
1
1
1
1
1
1
1
1
1
1
1
1
1
1
1
1
1
1
1
1
1
1
1
1
1
1
1
1
1
1
1
1
1
1
1
1
1
2.553e-05
2.379e-05
4.349e-05
1.311e-05
1.053e-05
8.145e-06
1.171e-05
4.643e-05
0.0001197
6.55e-05
4.209e-05
3.036e-05
2.514e-05
8.388e-05
6.173e-05
1.029e-05
1.743e-06
3.196e-07
1.391e-07
1.221e-07
6.482e-07
7.608e-06
6.847e-05
0.0003102
0.0009333
0.0009396
0.001433
0.001656
0.001545
0.001584
0.002471
0.005198
0.01093
0.01136
0.004807
0.001515
0.0009157
0.001443
0.002095
0.003574
0.00415
0.002402
0.001008
0.0009767
0.0006013
0.0005793
0.0007884
0.001932
0.003772
0.005591
0.003523
0.001355
0.0008211
0.0003605
0.0002961
0.0001495
0.0001355
0.0001856
0.0006856
0.002398
0.0227
0.1932
0.7539
0.9451
0.9901
0.9979
0.9997
1
1
1
1
1
1
1
1
1
1
1
1
1
1
1
1
1
1
1
1
1
1
1
1
1
1
1
1
1
1
1
1
1
1
1
1
1
1
1
1
1
1
1
1
1
1
1
1
1
1
1
1
1
1
1
1
1
1
1
1
1
1
1
1
1
1
1
1
1
1
1
1
1
1
1
1
1
1
1
1
1
1
1
1
1
1
1
1
1
1
1
1
1
4.891e-05
5.213e-05
0.0001578
4.35e-05
1.242e-05
7.067e-06
1.771e-05
7.848e-05
0.0002152
0.0001229
4.344e-05
2.477e-05
2.973e-05
0.0001313
2.766e-05
1.729e-06
2.491e-07
5.164e-08
3.799e-08
3.737e-08
2.644e-07
3.506e-06
4.124e-05
0.000275
0.001644
0.001325
0.002215
0.002378
0.001488
0.001125
0.001344
0.003193
0.007867
0.009863
0.005242
0.002484
0.002384
0.003175
0.005554
0.008631
0.01196
0.01101
0.009303
0.006617
0.003446
0.001672
0.00125
0.001836
0.003796
0.006043
0.004351
0.001994
0.00122
0.0005917
0.0006162
0.0004947
0.0008136
0.002507
0.01659
0.1298
0.7218
0.9325
0.9892
0.9984
0.9998
1
1
1
1
1
1
1
1
1
1
1
1
1
1
1
1
1
1
1
1
1
1
1
1
1
1
1
1
1
1
1
1
1
1
1
1
1
1
1
1
1
1
1
1
1
1
1
1
1
1
1
1
1
1
1
1
1
1
1
1
1
1
1
1
1
1
1
1
1
1
1
1
1
1
1
1
1
1
1
1
1
1
1
1
1
1
1
1
1
1
1
1
1
1
1
7.42e-05
9.543e-05
0.0002296
7.414e-05
1.666e-05
2.132e-05
5.211e-05
0.0002759
0.0004018
0.0001863
4.394e-05
1.938e-05
2.342e-05
7.432e-05
5.402e-06
4.718e-07
1.385e-07
7.682e-08
1.145e-07
1.302e-07
7.076e-07
4.913e-06
6.429e-05
0.0003762
0.002382
0.001831
0.002706
0.003156
0.002439
0.002214
0.002254
0.003931
0.008543
0.009902
0.005898
0.004061
0.005315
0.006726
0.008977
0.01043
0.01465
0.01751
0.02764
0.02261
0.01156
0.003818
0.001492
0.001059
0.001634
0.002875
0.002683
0.00217
0.002237
0.001872
0.002504
0.005598
0.02177
0.09907
0.6803
0.931
0.9857
0.9979
0.9998
1
1
1
1
1
1
1
1
1
1
1
1
1
1
1
1
1
1
1
1
1
1
1
1
1
1
1
1
1
1
1
1
1
1
1
1
1
1
1
1
1
1
1
1
1
1
1
1
1
1
1
1
1
1
1
1
1
1
1
1
1
1
1
1
1
1
1
1
1
1
1
1
1
1
1
1
1
1
1
1
1
1
1
1
1
1
1
1
1
1
1
1
1
1
1
1
1
6.514e-05
0.0001015
0.000176
6.487e-05
1.331e-05
3.495e-05
0.0001496
0.001142
0.001219
0.0004714
9.939e-05
3.109e-05
1.968e-05
3.384e-05
2.349e-06
3.522e-07
4.43e-07
8.853e-07
2.064e-06
2.428e-06
8.029e-06
2.837e-05
0.0003024
0.001476
0.007099
0.00479
0.005713
0.005056
0.003625
0.002652
0.002871
0.004775
0.0104
0.01319
0.009158
0.007646
0.01167
0.01573
0.01543
0.01008
0.007948
0.00697
0.01116
0.01207
0.008082
0.003687
0.0021
0.0008802
0.0006641
0.0009309
0.0009885
0.001592
0.004206
0.00799
0.01848
0.08376
0.5715
0.891
0.9832
0.9976
0.9997
1
1
1
1
1
1
1
1
1
1
1
1
1
1
1
1
1
1
1
1
1
1
1
1
1
1
1
1
1
1
1
1
1
1
1
1
1
1
1
1
1
1
1
1
1
1
1
1
1
1
1
1
1
1
1
1
1
1
1
1
1
1
1
1
1
1
1
1
1
1
1
1
1
1
1
1
1
1
1
1
1
1
1
1
1
1
1
1
1
1
1
1
1
1
1
1
1
1
1
0.0001034
0.0001206
0.0001554
7.383e-05
1.865e-05
0.0001012
0.0003996
0.002223
0.002211
0.001189
0.0003193
0.0001251
5.806e-05
5.168e-05
5.51e-06
1.831e-06
5.908e-06
1.878e-05
4.61e-05
5.106e-05
0.0001268
0.0002572
0.001025
0.003275
0.007844
0.005977
0.005624
0.005326
0.004355
0.003432
0.003678
0.006402
0.01491
0.02197
0.01699
0.01305
0.01427
0.01299
0.008987
0.004504
0.002132
0.001628
0.002266
0.004026
0.005554
0.005355
0.004343
0.001558
0.000906
0.0007476
0.001101
0.002243
0.01294
0.04094
0.3322
0.8467
0.9708
0.995
0.9995
1
1
1
1
1
1
1
1
1
1
1
1
1
1
1
1
1
1
1
1
1
1
1
1
1
1
1
1
1
1
1
1
1
1
1
1
1
1
1
1
1
1
1
1
1
1
1
1
1
1
1
1
1
1
1
1
1
1
1
1
1
1
1
1
1
1
1
1
1
1
1
1
1
1
1
1
1
1
1
1
1
1
1
1
1
1
1
1
1
1
1
1
1
1
1
1
1
1
1
1
1
0.0002343
0.0002336
0.0002821
9.849e-05
3.272e-05
0.000138
0.0003272
0.001691
0.002207
0.001936
0.0006486
0.000529
0.0003354
0.000237
4.509e-05
2.082e-05
4.756e-05
0.0001011
0.0001996
0.0003972
0.0008458
0.001213
0.002262
0.003035
0.003033
0.003458
0.005402
0.004194
0.003167
0.002162
0.001589
0.002416
0.007624
0.01706
0.01914
0.01556
0.01326
0.01157
0.00775
0.00423
0.001608
0.0008785
0.0008699
0.001415
0.002534
0.00425
0.005755
0.002751
0.002541
0.002076
0.004222
0.01049
0.1107
0.6351
0.9358
0.9918
0.9992
0.9999
1
1
1
1
1
1
1
1
1
1
1
1
1
1
1
1
1
1
1
1
1
1
1
1
1
1
0.9999
0.9999
0.9998
0.9996
0.9996
0.9995
0.9996
0.9999
1
1
1
1
1
1
1
1
1
1
1
1
1
1
1
1
1
1
1
1
1
1
1
1
1
1
1
1
1
1
1
1
1
1
1
1
1
1
1
1
1
1
1
1
1
1
1
1
1
1
1
1
1
1
1
1
1
1
1
1
1
1
1
1
1
1
1
1
0.0005593
0.0004897
0.0005035
0.0001334
6.031e-05
0.0001281
0.0001337
0.0006683
0.001495
0.00218
0.001174
0.002096
0.001115
0.0008974
0.000335
0.0002574
0.0003601
0.0004412
0.0003987
0.0007548
0.001807
0.002097
0.002828
0.002252
0.001676
0.002555
0.007012
0.006727
0.004777
0.002977
0.001433
0.001513
0.003543
0.01094
0.02119
0.02428
0.02192
0.01564
0.009543
0.005659
0.002512
0.001153
0.0008436
0.001122
0.001421
0.002895
0.005673
0.005078
0.009645
0.01948
0.07826
0.5124
0.9213
0.988
0.999
0.9999
1
1
1
1
1
1
1
1
1
1
1
1
1
1
1
1
1
1
1
1
1
1
1
1
0.9999
0.9996
0.999
0.9968
0.9859
0.9806
0.9703
0.9563
0.9536
0.9475
0.9501
0.9689
0.9793
0.9852
0.9904
0.9939
0.9971
0.9991
0.9998
0.9999
1
1
1
1
1
1
1
1
1
1
1
1
1
1
1
1
1
1
1
1
1
1
1
1
1
1
1
1
1
1
1
1
1
1
1
1
1
1
1
1
1
1
1
1
1
1
1
1
1
1
1
1
1
1
1
1
1
1
1
1
0.001117
0.0008921
0.00103
0.0002257
0.0001215
5.862e-05
2.917e-05
0.0001394
0.0007642
0.002232
0.003298
0.006381
0.003431
0.00325
0.001776
0.001583
0.00101
0.0008896
0.0004795
0.0007992
0.001335
0.001404
0.002128
0.00159
0.002349
0.004647
0.0147
0.01409
0.01018
0.004851
0.001972
0.001258
0.001873
0.00651
0.01883
0.03518
0.03873
0.0218
0.01195
0.007731
0.004153
0.002401
0.001841
0.001686
0.001886
0.003446
0.008177
0.01614
0.05454
0.2455
0.7773
0.9613
0.997
0.9998
1
1
1
1
1
1
1
1
1
1
1
1
1
1
1
1
1
1
1
1
1
1
1
0.9999
0.9994
0.997
0.9851
0.9505
0.8882
0.7763
0.5268
0.3642
0.2157
0.1705
0.127
0.09982
0.08828
0.08598
0.121
0.2438
0.4732
0.6028
0.8054
0.9277
0.9767
0.9911
0.9969
0.9987
0.9997
0.9999
1
1
1
1
1
1
1
1
1
1
1
1
1
1
1
1
1
1
1
1
1
1
1
1
1
1
1
1
1
1
1
1
1
1
1
1
1
1
1
1
1
1
1
1
1
1
1
1
1
1
1
1
1
1
1
0.9999
0.0009712
0.0008661
0.001033
0.0002383
0.0002451
5.834e-05
2.679e-05
7.687e-05
0.0005188
0.001231
0.003258
0.005907
0.004163
0.004667
0.003624
0.004168
0.002718
0.001844
0.001241
0.0009913
0.001227
0.001129
0.001478
0.001253
0.001825
0.002866
0.008708
0.01138
0.01256
0.008366
0.003094
0.001059
0.0007847
0.00168
0.00619
0.01806
0.02683
0.01492
0.008175
0.006277
0.00591
0.005544
0.005716
0.005112
0.005802
0.01236
0.03753
0.1467
0.6632
0.9233
0.9893
0.9989
0.9999
1
1
1
1
1
1
1
1
1
1
1
1
1
1
1
1
1
1
1
1
1
0.9999
0.9997
0.9971
0.9815
0.9222
0.7458
0.5022
0.2352
0.08661
0.03315
0.01188
0.004914
0.003056
0.004488
0.004307
0.004711
0.003773
0.003083
0.004506
0.01035
0.02333
0.04503
0.08541
0.1241
0.2187
0.3937
0.5903
0.8194
0.9618
0.9915
0.998
0.9995
0.9999
1
1
1
1
1
1
1
1
1
1
1
1
1
1
1
1
1
1
1
1
1
1
1
1
1
1
1
1
1
1
1
1
1
1
1
1
1
1
1
1
1
1
1
1
1
1
1
1
1
0.9999
0.9991
0.9953
0.9826
0.0007841
0.0009779
0.001598
0.0003256
0.0003841
4.948e-05
2.433e-05
4.372e-05
0.0006099
0.001056
0.00295
0.003273
0.003089
0.003749
0.00283
0.003105
0.003096
0.002935
0.002561
0.001249
0.0006769
0.000408
0.0006911
0.001227
0.002344
0.002347
0.004864
0.006819
0.007588
0.005428
0.002453
0.0007373
0.0004539
0.0009744
0.003528
0.0122
0.02176
0.01533
0.008708
0.007753
0.01004
0.01149
0.0136
0.01371
0.01923
0.04449
0.2045
0.7272
0.9536
0.9942
0.9995
0.9999
1
1
1
1
1
1
1
1
1
1
1
1
1
1
1
1
1
1
1
1
0.9999
0.9992
0.9921
0.9567
0.8082
0.4949
0.1273
0.04305
0.01253
0.005622
0.00201
0.0007498
0.0002922
0.0001907
0.0001136
0.0002809
0.0004939
0.0006337
0.0005289
0.0004568
0.0007046
0.001755
0.003599
0.005864
0.007693
0.007591
0.009716
0.01795
0.03446
0.07147
0.1735
0.5353
0.8036
0.9401
0.9852
0.9956
0.9989
0.9993
0.9998
1
1
1
1
1
1
1
1
1
1
1
1
1
1
1
1
1
1
1
1
1
1
1
1
1
1
1
1
1
1
1
1
1
1
1
1
1
1
1
1
1
0.9999
0.9997
0.9983
0.9911
0.9621
0.851
0.6688
0.504
0.0008194
0.001232
0.002731
0.0004905
0.0004509
4.956e-05
3.621e-05
7.057e-05
0.0005271
0.0007927
0.00202
0.002386
0.003719
0.004262
0.002058
0.002006
0.003163
0.005662
0.004909
0.001339
0.0002675
0.0001228
0.0002772
0.0008755
0.002572
0.002583
0.003068
0.004451
0.005123
0.00352
0.001907
0.0006482
0.0004033
0.0008793
0.002426
0.007588
0.01201
0.008921
0.006158
0.007028
0.01199
0.01712
0.02379
0.03002
0.06428
0.4184
0.8628
0.9825
0.9987
0.9999
1
1
1
1
1
1
1
1
1
1
1
1
1
1
1
1
1
1
1
1
0.9999
0.9991
0.9929
0.9524
0.7459
0.1769
0.03205
0.01136
0.00391
0.001913
0.0008725
0.0005964
0.0002171
8.486e-05
2.595e-05
3.521e-05
3.343e-05
0.000114
0.0002296
0.000425
0.0003617
0.0002739
0.0003063
0.0005985
0.0009644
0.001322
0.001288
0.0008579
0.0008113
0.001195
0.002114
0.003662
0.01024
0.03309
0.06011
0.1452
0.452
0.6823
0.8645
0.9512
0.9941
0.9997
1
1
1
1
1
1
1
1
1
1
1
1
1
1
1
1
1
1
1
1
1
1
1
1
1
1
1
1
1
1
1
1
1
1
1
1
0.9999
0.9997
0.9988
0.9936
0.9742
0.9009
0.694
0.3664
0.1541
0.05896
0.02726
0.007576
0.0004496
0.0007106
0.00242
0.0005238
0.0004557
6.807e-05
5.106e-05
0.0001087
0.0008101
0.0009147
0.001259
0.00165
0.004222
0.005586
0.001691
0.0009331
0.001012
0.002738
0.003622
0.001635
0.000214
9.104e-05
0.0001526
0.0007103
0.002416
0.00268
0.00258
0.003316
0.002856
0.001794
0.00107
0.000662
0.0006188
0.001868
0.003951
0.007216
0.007205
0.005055
0.002905
0.003036
0.005055
0.009448
0.02453
0.08545
0.4943
0.9082
0.9876
0.9992
1
1
1
1
1
1
1
1
1
1
1
1
1
1
1
1
1
1
1
1
0.9999
0.9989
0.9879
0.929
0.5922
0.1041
0.02388
0.007016
0.002752
0.001425
0.0006836
0.0005503
0.0003607
0.0003093
0.0001183
8.429e-05
5.309e-05
8.71e-05
9.206e-05
0.0002977
0.0005688
0.001029
0.000841
0.0005507
0.0005394
0.0005498
0.0006242
0.0007227
0.0005996
0.0003552
0.0002283
0.0002226
0.0002457
0.0002818
0.0006253
0.001492
0.002827
0.00834
0.03621
0.09139
0.2999
0.7634
0.9704
0.9992
1
1
1
1
1
1
1
1
1
1
1
1
1
1
1
1
1
1
1
1
1
1
1
1
1
1
1
1
1
1
1
0.9999
0.9998
0.9992
0.9975
0.9914
0.9734
0.913
0.7788
0.4444
0.1793
0.06443
0.02594
0.008667
0.003041
0.001099
0.0003995
4.005e-05
0.0001592
0.0002579
0.00138
0.0004423
0.0004094
0.0001523
0.00012
0.0002321
0.001937
0.001358
0.000924
0.001447
0.004505
0.006666
0.002072
0.0008275