/*--------------------------------*- C++ -*----------------------------------*\
| =========                 |                                                 |
| \\      /  F ield         | OpenFOAM: The Open Source CFD Toolbox           |
|  \\    /   O peration     | Version:  5.x                                   |
|   \\  /    A nd           | Web:      www.OpenFOAM.org                      |
|    \\/     M anipulation  |                                                 |
\*---------------------------------------------------------------------------*/
FoamFile
{
    version     2.0;
    format      ascii;
    class       volScalarField;
    location    "55";
    object      gamma;
}
// * * * * * * * * * * * * * * * * * * * * * * * * * * * * * * * * * * * * * //

dimensions      [0 0 0 0 0 0 0];

internalField   nonuniform List<scalar> 
86400
(
0.005795
0.00513
0.004863
0.004766
0.005375
0.006581
0.0081
0.01026
0.01431
0.02036
0.02982
0.04264
0.06093
0.07861
0.09745
0.1078
0.1112
0.1032
0.0984
0.09687
0.0981
0.09597
0.09215
0.08483
0.08134
0.08536
0.08554
0.08445
0.07911
0.07477
0.07051
0.06937
0.06876
0.06848
0.06878
0.0697
0.06476
0.05742
0.04798
0.04276
0.0404
0.04199
0.04231
0.04114
0.04184
0.04363
0.04775
0.0502
0.05131
0.049
0.0477
0.04699
0.04648
0.04574
0.04425
0.04418
0.04458
0.04559
0.0468
0.04835
0.04784
0.04827
0.0464
0.0463
0.04905
0.05378
0.05868
0.06275
0.06153
0.05937
0.05978
0.06132
0.06334
0.06475
0.06789
0.07185
0.07488
0.08213
0.0912
0.1019
0.1121
0.1192
0.1186
0.1182
0.119
0.1186
0.12
0.1207
0.1213
0.1212
0.1196
0.1248
0.1342
0.1499
0.162
0.1701
0.1685
0.1684
0.169
0.1704
0.1718
0.1737
0.1751
0.176
0.1745
0.18
0.1931
0.2155
0.236
0.2519
0.2552
0.2542
0.2534
0.2527
0.2521
0.2517
0.2517
0.2518
0.2521
0.2525
0.2529
0.2534
0.2537
0.2539
0.254
0.2542
0.2539
0.2532
0.2524
0.2519
0.2518
0.253
0.2535
0.2537
0.2536
0.2534
0.2534
0.253
0.2446
0.2325
0.2205
0.2166
0.2157
0.2181
0.2154
0.211
0.2073
0.2078
0.2079
0.205
0.199
0.1932
0.1907
0.183
0.1825
0.2013
0.2603
0.407
0.8757
0.9795
0.005347
0.004705
0.004505
0.004487
0.005431
0.00738
0.0102
0.01463
0.02235
0.03344
0.05111
0.07057
0.09098
0.106
0.1237
0.1377
0.1529
0.1542
0.1643
0.178
0.1971
0.2096
0.2097
0.1878
0.1734
0.1641
0.1574
0.15
0.1414
0.133
0.1225
0.1151
0.1087
0.1037
0.1009
0.1008
0.09529
0.08745
0.07854
0.07253
0.0693
0.07018
0.07064
0.06893
0.06864
0.06965
0.07149
0.07286
0.07338
0.07117
0.07022
0.07002
0.07007
0.0698
0.06814
0.06782
0.06787
0.06968
0.07119
0.0736
0.07338
0.07508
0.07296
0.07369
0.07859
0.08927
0.09731
0.104
0.1025
0.1005
0.1023
0.1061
0.1114
0.1151
0.1206
0.1269
0.1333
0.1423
0.1529
0.1601
0.1694
0.1764
0.1782
0.1805
0.1833
0.1841
0.1863
0.1872
0.1881
0.1883
0.1869
0.193
0.2029
0.2156
0.2269
0.2342
0.2328
0.2329
0.2338
0.2349
0.2359
0.2372
0.2385
0.2383
0.2358
0.2387
0.2489
0.2649
0.2839
0.298
0.3017
0.3007
0.2999
0.2994
0.2991
0.299
0.2993
0.2997
0.3004
0.3012
0.3021
0.303
0.3037
0.3042
0.3048
0.3053
0.3051
0.3045
0.3038
0.3034
0.3035
0.3053
0.306
0.3064
0.3064
0.3059
0.3052
0.3044
0.297
0.2865
0.2784
0.2755
0.2744
0.2761
0.2751
0.2719
0.2692
0.2708
0.2726
0.2712
0.2665
0.2631
0.2653
0.2667
0.2815
0.332
0.4468
0.5931
0.8089
0.9198
0.005367
0.004773
0.004656
0.004922
0.006597
0.01003
0.01549
0.02507
0.04058
0.06185
0.09083
0.1179
0.1494
0.1762
0.2062
0.2286
0.2533
0.2643
0.3155
0.3768
0.4396
0.4663
0.4642
0.4265
0.3996
0.3742
0.3437
0.3105
0.2825
0.2595
0.2386
0.2209
0.2038
0.19
0.1803
0.1766
0.1683
0.1577
0.147
0.1404
0.137
0.1375
0.1355
0.1321
0.1301
0.1306
0.1316
0.1324
0.1325
0.1293
0.127
0.1252
0.1239
0.1228
0.1207
0.12
0.1196
0.1209
0.1234
0.1279
0.1301
0.1358
0.1364
0.1433
0.1527
0.1644
0.1748
0.1847
0.1838
0.1832
0.189
0.1996
0.2143
0.223
0.2316
0.2386
0.2424
0.2485
0.2604
0.2656
0.2736
0.2794
0.282
0.2868
0.2929
0.2956
0.3003
0.3035
0.3063
0.3077
0.3056
0.3091
0.3167
0.3273
0.3366
0.3426
0.3419
0.3429
0.3454
0.3473
0.3488
0.35
0.3525
0.3527
0.3485
0.3464
0.3509
0.3604
0.374
0.3849
0.3882
0.3869
0.3862
0.3857
0.3857
0.3861
0.387
0.3879
0.389
0.3903
0.392
0.3937
0.3952
0.3964
0.3976
0.399
0.3993
0.3993
0.3987
0.3988
0.3995
0.4019
0.403
0.4038
0.4038
0.4035
0.4029
0.4021
0.3969
0.3899
0.3845
0.383
0.3834
0.3853
0.3849
0.3829
0.3821
0.3861
0.3917
0.3957
0.3983
0.4038
0.4201
0.4401
0.4809
0.5527
0.6451
0.7439
0.831
0.8821
0.005722
0.005356
0.005616
0.006717
0.01036
0.01786
0.03061
0.05372
0.0885
0.1332
0.1841
0.2322
0.3047
0.3516
0.4012
0.4259
0.4522
0.4786
0.5656
0.635
0.6882
0.7126
0.7079
0.6817
0.6573
0.6267
0.5926
0.5596
0.5306
0.5038
0.4796
0.452
0.4171
0.3868
0.3613
0.3478
0.3352
0.3274
0.3243
0.3293
0.3352
0.3421
0.3423
0.3383
0.3298
0.3245
0.3185
0.3128
0.3085
0.3015
0.2924
0.2819
0.2727
0.2657
0.2607
0.2584
0.258
0.261
0.2682
0.2789
0.2893
0.3065
0.315
0.3289
0.3481
0.3703
0.3863
0.4041
0.4096
0.422
0.4427
0.4678
0.4928
0.5007
0.4995
0.4924
0.4867
0.4831
0.4873
0.485
0.4834
0.4844
0.4901
0.4981
0.5061
0.512
0.5173
0.5211
0.5237
0.5252
0.5242
0.5226
0.522
0.5231
0.5233
0.524
0.5248
0.5264
0.5286
0.5302
0.5316
0.5321
0.5323
0.5298
0.5231
0.5134
0.5067
0.5042
0.5054
0.5087
0.5107
0.5102
0.5103
0.5107
0.5115
0.5126
0.5139
0.5151
0.5165
0.5182
0.52
0.522
0.5239
0.5255
0.5272
0.5289
0.5297
0.5299
0.5299
0.5301
0.5309
0.5332
0.5346
0.536
0.5371
0.5374
0.5371
0.5365
0.5358
0.5358
0.5365
0.5378
0.5394
0.5409
0.5415
0.5433
0.5463
0.5521
0.5602
0.5691
0.5791
0.5933
0.6141
0.6403
0.6834
0.741
0.8028
0.8605
0.9059
0.9322
0.007325
0.007647
0.008883
0.01214
0.0209
0.03873
0.06752
0.1193
0.1847
0.2519
0.3301
0.4228
0.5473
0.611
0.6432
0.6239
0.6046
0.6178
0.7005
0.7669
0.8016
0.8146
0.8002
0.779
0.7645
0.7517
0.7363
0.7194
0.7021
0.6811
0.659
0.6321
0.6017
0.5736
0.5527
0.5388
0.528
0.5346
0.5533
0.5847
0.6155
0.6364
0.6445
0.6482
0.6465
0.6468
0.6465
0.645
0.6415
0.6318
0.6158
0.5937
0.572
0.554
0.543
0.5351
0.5314
0.5324
0.538
0.5468
0.5594
0.5751
0.5884
0.5967
0.6017
0.6023
0.6038
0.6064
0.6086
0.6163
0.6264
0.6395
0.653
0.654
0.6442
0.6296
0.6175
0.612
0.6156
0.6192
0.6195
0.6204
0.623
0.6271
0.6312
0.6354
0.6387
0.6413
0.6435
0.645
0.6439
0.643
0.6428
0.6441
0.6452
0.647
0.6484
0.6501
0.6522
0.6536
0.6545
0.6536
0.6505
0.645
0.6366
0.6275
0.6198
0.6157
0.6138
0.6141
0.6142
0.6142
0.6146
0.6155
0.6168
0.6185
0.6201
0.6218
0.6233
0.625
0.6268
0.6288
0.6307
0.6323
0.6339
0.6355
0.6364
0.6368
0.6372
0.6379
0.639
0.641
0.6424
0.6438
0.6449
0.6456
0.6461
0.6467
0.6475
0.6487
0.6504
0.6523
0.6541
0.6559
0.6577
0.6606
0.6646
0.6715
0.6808
0.6923
0.7061
0.723
0.7433
0.7696
0.8062
0.8464
0.8846
0.9152
0.9381
0.9522
0.009951
0.0118
0.01537
0.02402
0.04484
0.08031
0.1305
0.2069
0.2833
0.3418
0.444
0.5648
0.6941
0.7596
0.7744
0.7386
0.6936
0.6864
0.7453
0.8051
0.8359
0.8483
0.8359
0.8223
0.8073
0.7965
0.784
0.773
0.7598
0.7417
0.7218
0.6966
0.6687
0.6417
0.6235
0.6087
0.6105
0.6457
0.6984
0.7572
0.8033
0.8315
0.8443
0.8505
0.8506
0.8488
0.8453
0.8394
0.8291
0.8108
0.7827
0.7449
0.7068
0.676
0.6598
0.6551
0.6584
0.6632
0.6713
0.6799
0.6901
0.6981
0.7032
0.7055
0.7059
0.7053
0.7073
0.7068
0.706
0.7081
0.7113
0.7189
0.7261
0.7244
0.7127
0.7027
0.6939
0.6925
0.697
0.7021
0.7037
0.7054
0.707
0.71
0.712
0.7144
0.7163
0.7181
0.7191
0.72
0.7203
0.7207
0.7223
0.7246
0.7261
0.7276
0.7286
0.7296
0.731
0.7308
0.7294
0.7256
0.7193
0.7119
0.7038
0.6963
0.6911
0.6885
0.687
0.6872
0.6873
0.6877
0.6886
0.6898
0.6914
0.6931
0.6949
0.6966
0.6982
0.6997
0.7013
0.703
0.7047
0.7063
0.7078
0.7091
0.7102
0.7111
0.7119
0.7131
0.7144
0.7161
0.7176
0.7192
0.7209
0.7225
0.724
0.7251
0.7262
0.7276
0.7295
0.7314
0.7337
0.7362
0.7388
0.7425
0.7476
0.7547
0.7635
0.7745
0.7872
0.8015
0.8193
0.8416
0.8693
0.8968
0.9206
0.9379
0.9505
0.9595
0.01398
0.01807
0.02542
0.04141
0.07526
0.1242
0.1901
0.2734
0.3469
0.4048
0.5256
0.6595
0.7825
0.8382
0.847
0.8085
0.7483
0.7159
0.743
0.7918
0.8214
0.8314
0.8232
0.8234
0.8236
0.8251
0.8207
0.8116
0.8022
0.7898
0.7756
0.7542
0.732
0.7105
0.694
0.6822
0.7009
0.7589
0.8282
0.887
0.9224
0.94
0.9473
0.9499
0.949
0.9464
0.9423
0.9358
0.9251
0.907
0.8776
0.8339
0.7834
0.7361
0.7058
0.6945
0.7042
0.7198
0.7391
0.7552
0.764
0.7646
0.7639
0.7603
0.7561
0.7539
0.7534
0.7505
0.7494
0.7475
0.7478
0.7513
0.7543
0.7528
0.7458
0.7407
0.737
0.7398
0.7444
0.7492
0.7508
0.7523
0.7538
0.7563
0.7587
0.7615
0.7636
0.7652
0.766
0.7667
0.7668
0.7669
0.7678
0.7693
0.7705
0.7721
0.7739
0.7761
0.7769
0.7747
0.7701
0.7629
0.7546
0.7472
0.7419
0.7373
0.735
0.7344
0.734
0.7345
0.7349
0.7355
0.7363
0.7375
0.7389
0.7405
0.7422
0.7438
0.7453
0.7467
0.7482
0.7498
0.7513
0.7526
0.7539
0.755
0.7561
0.7571
0.7582
0.7594
0.7607
0.7623
0.764
0.7656
0.7674
0.7691
0.7708
0.7723
0.7741
0.7758
0.7779
0.7803
0.783
0.786
0.7895
0.7939
0.7992
0.8059
0.8137
0.8227
0.8326
0.8453
0.8617
0.8812
0.9028
0.9221
0.9365
0.9468
0.9542
0.9591
0.02204
0.02903
0.0409
0.06436
0.108
0.163
0.2372
0.3164
0.4033
0.4929
0.6282
0.7509
0.8399
0.8772
0.8805
0.8498
0.7921
0.7358
0.71
0.7177
0.734
0.748
0.76
0.788
0.8141
0.8362
0.8467
0.8459
0.8409
0.8362
0.8298
0.8197
0.8033
0.7844
0.7659
0.7568
0.7863
0.8507
0.9127
0.953
0.973
0.9813
0.9845
0.9854
0.9848
0.9831
0.9804
0.9762
0.969
0.9563
0.934
0.897
0.8481
0.7967
0.7604
0.7423
0.7494
0.7698
0.7963
0.8142
0.8191
0.8103
0.7969
0.7842
0.7775
0.7751
0.7744
0.771
0.7689
0.7676
0.7665
0.7675
0.7696
0.769
0.7664
0.766
0.7676
0.7722
0.7762
0.7801
0.7818
0.7832
0.7847
0.7871
0.7897
0.7923
0.7945
0.7957
0.7965
0.7972
0.7983
0.7994
0.8016
0.8036
0.8054
0.8074
0.8078
0.8078
0.8053
0.7995
0.7915
0.7824
0.7737
0.768
0.7651
0.763
0.7629
0.7638
0.7645
0.7653
0.766
0.7668
0.7677
0.7688
0.7702
0.7716
0.7731
0.7746
0.7761
0.7775
0.7789
0.7803
0.7817
0.783
0.7842
0.7854
0.7867
0.7878
0.7892
0.7907
0.7923
0.7942
0.7963
0.7981
0.7998
0.8014
0.8032
0.8049
0.8067
0.8087
0.8111
0.8137
0.8167
0.82
0.8239
0.8285
0.8338
0.8398
0.8464
0.8535
0.8628
0.8754
0.891
0.9079
0.924
0.9361
0.9448
0.9511
0.955
0.9567
0.03618
0.04683
0.06115
0.0895
0.1386
0.1996
0.2789
0.3802
0.4921
0.6018
0.7249
0.8181
0.8709
0.8932
0.8939
0.8677
0.826
0.7687
0.7244
0.708
0.6993
0.6728
0.6702
0.706
0.7583
0.8116
0.8423
0.8532
0.8568
0.8614
0.8621
0.8588
0.8472
0.8317
0.8144
0.8092
0.8421
0.9008
0.9492
0.9763
0.988
0.9924
0.9941
0.9945
0.9941
0.9931
0.9914
0.9887
0.9838
0.9749
0.9584
0.9295
0.8884
0.8418
0.8025
0.7786
0.7837
0.8037
0.8308
0.8454
0.8458
0.8301
0.811
0.7946
0.7869
0.7831
0.7815
0.7785
0.7784
0.7771
0.7754
0.7751
0.7772
0.7793
0.7821
0.7858
0.7899
0.7942
0.7977
0.801
0.8033
0.8056
0.8076
0.8102
0.8126
0.8147
0.8171
0.8189
0.8204
0.8215
0.8228
0.8237
0.8255
0.8274
0.8295
0.8303
0.8281
0.8247
0.8182
0.8095
0.7998
0.7922
0.7858
0.7831
0.7827
0.7828
0.7837
0.7846
0.7854
0.7861
0.7869
0.7877
0.7886
0.7897
0.7909
0.7923
0.7937
0.7951
0.7965
0.7979
0.7992
0.8006
0.802
0.8033
0.8048
0.8062
0.808
0.8098
0.8118
0.8139
0.8159
0.8181
0.8202
0.8222
0.8238
0.8255
0.827
0.829
0.8311
0.8334
0.836
0.8387
0.8419
0.8454
0.8492
0.8535
0.8582
0.8634
0.8688
0.8743
0.8837
0.8968
0.9118
0.9266
0.9379
0.9451
0.9503
0.9542
0.9554
0.954
0.05632
0.06772
0.08454
0.1207
0.1777
0.26
0.3812
0.5136
0.6231
0.7218
0.8017
0.8525
0.8768
0.8856
0.8794
0.8538
0.8215
0.7729
0.7163
0.6808
0.6476
0.58
0.5404
0.5568
0.6045
0.7017
0.7668
0.7969
0.8164
0.8402
0.8556
0.8642
0.8621
0.8519
0.8387
0.8403
0.8749
0.9239
0.9623
0.983
0.9917
0.995
0.9962
0.9965
0.9962
0.9954
0.994
0.9915
0.9872
0.9792
0.9645
0.939
0.9022
0.8599
0.8218
0.7973
0.7996
0.8158
0.8372
0.8498
0.8465
0.8252
0.8052
0.7879
0.7814
0.7789
0.7781
0.7774
0.7799
0.7818
0.784
0.7863
0.7891
0.792
0.7957
0.7989
0.8022
0.8058
0.8091
0.8127
0.8157
0.8193
0.8218
0.8246
0.8271
0.8296
0.8323
0.8345
0.8365
0.8379
0.8395
0.8408
0.8429
0.8436
0.8437
0.8413
0.8356
0.8284
0.8193
0.8099
0.8022
0.7975
0.7941
0.7939
0.7949
0.7958
0.7966
0.7975
0.7984
0.7993
0.8002
0.8013
0.8023
0.8035
0.8048
0.8061
0.8074
0.8088
0.8101
0.8115
0.813
0.8144
0.8159
0.8177
0.8197
0.8218
0.8242
0.8266
0.8287
0.831
0.8332
0.8355
0.8376
0.8395
0.8411
0.8428
0.8446
0.8468
0.8492
0.8517
0.8544
0.8572
0.8603
0.8636
0.8672
0.8711
0.8752
0.8795
0.8839
0.8882
0.8982
0.9118
0.9265
0.9381
0.9462
0.9502
0.9526
0.9541
0.9523
0.9472
0.07945
0.09229
0.1117
0.1561
0.2317
0.3771
0.5392
0.6648
0.751
0.8148
0.8489
0.8674
0.8682
0.8529
0.8169
0.766
0.7246
0.6768
0.652
0.6375
0.593
0.4641
0.3263
0.2819
0.2913
0.4162
0.5625
0.6495
0.7088
0.761
0.797
0.8198
0.8288
0.8258
0.8269
0.8401
0.8791
0.9248
0.9605
0.9809
0.9903
0.9941
0.9957
0.9961
0.9958
0.9948
0.9929
0.9898
0.9843
0.9747
0.9585
0.9328
0.8981
0.8595
0.826
0.8057
0.8058
0.8171
0.8329
0.8348
0.8272
0.8083
0.7918
0.7794
0.7766
0.7763
0.7781
0.7802
0.7837
0.7865
0.7889
0.7904
0.7925
0.7951
0.7981
0.8014
0.8049
0.809
0.8135
0.8189
0.8233
0.8279
0.8312
0.8343
0.8368
0.8395
0.8422
0.8447
0.8467
0.8483
0.8501
0.8515
0.8524
0.8502
0.8466
0.8403
0.8314
0.8218
0.8136
0.806
0.8018
0.8005
0.7999
0.8009
0.8018
0.8026
0.8035
0.8044
0.8054
0.8064
0.8075
0.8087
0.8099
0.8113
0.8126
0.8141
0.8155
0.817
0.8185
0.8201
0.8219
0.8239
0.8259
0.8284
0.8309
0.8333
0.8359
0.8385
0.8408
0.8432
0.8455
0.8476
0.8497
0.8516
0.8532
0.8551
0.8571
0.8596
0.8622
0.8649
0.8676
0.8704
0.8733
0.8765
0.8797
0.8832
0.8867
0.8903
0.8939
0.8972
0.9065
0.9186
0.9318
0.942
0.9491
0.9516
0.9521
0.9509
0.9454
0.936
0.09784
0.1131
0.1418
0.2
0.3085
0.5037
0.6608
0.7742
0.8366
0.867
0.8706
0.8636
0.8344
0.77
0.6613
0.5271
0.4269
0.3787
0.3486
0.3327
0.2975
0.2264
0.1928
0.1625
0.153
0.1894
0.2771
0.3807
0.4865
0.5808
0.6532
0.7102
0.7485
0.7726
0.8014
0.8328
0.8759
0.9197
0.9543
0.9754
0.9865
0.9915
0.9937
0.9943
0.9938
0.9924
0.9895
0.9846
0.9762
0.9619
0.9396
0.9069
0.8688
0.8328
0.8081
0.7966
0.7967
0.7989
0.7999
0.7947
0.7848
0.7725
0.7657
0.7633
0.7669
0.7706
0.7747
0.7778
0.7804
0.7822
0.7838
0.7853
0.7876
0.7911
0.7946
0.7985
0.8029
0.8083
0.8144
0.8211
0.8265
0.8316
0.8348
0.8377
0.8403
0.8431
0.8459
0.8483
0.8504
0.8523
0.8544
0.8552
0.8539
0.8482
0.8404
0.8293
0.8188
0.8101
0.8043
0.8
0.7994
0.8005
0.8014
0.8024
0.8033
0.8043
0.8053
0.8063
0.8075
0.8087
0.81
0.8114
0.8129
0.8144
0.8159
0.8175
0.8192
0.8211
0.8232
0.8253
0.8278
0.8304
0.8329
0.8358
0.8386
0.8413
0.8439
0.8465
0.8489
0.8513
0.8536
0.8556
0.8575
0.8593
0.8612
0.8635
0.8661
0.8687
0.8714
0.874
0.8767
0.8794
0.8822
0.8851
0.8881
0.8911
0.8942
0.8972
0.9001
0.9027
0.9103
0.9196
0.9306
0.9392
0.9456
0.9473
0.947
0.9431
0.9336
0.9206
0.1024
0.1252
0.1685
0.2509
0.3936
0.571
0.7215
0.82
0.8706
0.8886
0.8761
0.837
0.7472
0.5699
0.2746
0.118
0.07392
0.0603
0.05706
0.06143
0.07432
0.08288
0.1004
0.1165
0.1232
0.1417
0.1858
0.2417
0.3157
0.4199
0.4862
0.5735
0.6565
0.7235
0.7858
0.8361
0.8797
0.9187
0.9492
0.9695
0.9817
0.9877
0.9905
0.9912
0.9905
0.9879
0.9828
0.9738
0.9592
0.9357
0.9034
0.861
0.8188
0.7863
0.7712
0.7674
0.7691
0.7639
0.7561
0.7476
0.7401
0.7385
0.7441
0.7497
0.7546
0.7586
0.7621
0.7658
0.7686
0.771
0.773
0.7751
0.778
0.7819
0.7856
0.7899
0.7951
0.8026
0.8112
0.8193
0.8253
0.8296
0.8325
0.8353
0.8385
0.842
0.8453
0.8478
0.8498
0.8503
0.8502
0.8481
0.8431
0.8338
0.8226
0.8109
0.8023
0.7975
0.7958
0.7952
0.7963
0.7974
0.7984
0.7995
0.8006
0.8017
0.8029
0.8042
0.8056
0.8071
0.8087
0.8103
0.812
0.8137
0.8157
0.818
0.8203
0.8229
0.8256
0.8282
0.8312
0.8343
0.8373
0.8404
0.8434
0.846
0.8486
0.8513
0.8539
0.8562
0.8584
0.8603
0.8622
0.8643
0.8668
0.8695
0.8722
0.8749
0.8775
0.8801
0.8827
0.8853
0.888
0.8907
0.8934
0.8961
0.8987
0.9013
0.9037
0.9057
0.9105
0.9163
0.9239
0.9319
0.9385
0.9403
0.9389
0.9312
0.919
0.9044
0.09947
0.1307
0.19
0.3047
0.4597
0.5983
0.7222
0.8173
0.8662
0.8772
0.8457
0.7568
0.5434
0.1902
0.05425
0.01855
0.009278
0.005932
0.005364
0.006692
0.01201
0.0246
0.05092
0.09744
0.1417
0.1784
0.2112
0.2605
0.2806
0.3247
0.3631
0.4583
0.5597
0.6819
0.7732
0.8378
0.8794
0.9151
0.9431
0.9625
0.9749
0.9813
0.9841
0.9842
0.9823
0.9771
0.9682
0.9529
0.9289
0.8927
0.849
0.7987
0.7582
0.7339
0.7291
0.7292
0.7259
0.7171
0.7113
0.7071
0.7076
0.715
0.7229
0.7296
0.735
0.7391
0.743
0.7473
0.7514
0.7548
0.7577
0.7605
0.7636
0.7675
0.7709
0.7754
0.7818
0.7913
0.8022
0.8117
0.8178
0.822
0.8246
0.8275
0.8316
0.8356
0.839
0.8403
0.8404
0.838
0.835
0.8297
0.8223
0.8105
0.7998
0.7904
0.7858
0.7852
0.7865
0.7877
0.789
0.7902
0.7913
0.7926
0.7939
0.7953
0.7969
0.7985
0.8002
0.802
0.8038
0.8058
0.808
0.8105
0.8134
0.8165
0.8195
0.8227
0.8259
0.8291
0.8325
0.836
0.8392
0.8423
0.8453
0.848
0.8507
0.8534
0.8559
0.8583
0.8605
0.8626
0.8649
0.8675
0.8704
0.8732
0.876
0.8786
0.8812
0.8837
0.8863
0.8889
0.8914
0.8939
0.8964
0.8987
0.901
0.9032
0.9051
0.9067
0.9091
0.913
0.9189
0.9267
0.9328
0.9353
0.9323
0.9222
0.907
0.8913
0.09352
0.1342
0.219
0.4017
0.5464
0.6393
0.7113
0.7786
0.8278
0.8386
0.7994
0.662
0.2671
0.05282
0.0104
0.002613
0.0009671
0.0006279
0.0007525
0.001481
0.004373
0.01447
0.04059
0.09233
0.171
0.2486
0.2789
0.3534
0.3646
0.3679
0.3524
0.4086
0.4835
0.618
0.7282
0.8094
0.8562
0.8953
0.9242
0.9439
0.9579
0.9652
0.9676
0.9661
0.9613
0.951
0.9354
0.9095
0.8745
0.8277
0.7809
0.7345
0.7029
0.6879
0.6862
0.6838
0.6774
0.6704
0.6683
0.6699
0.677
0.6867
0.6965
0.7038
0.7094
0.7137
0.7183
0.7237
0.7293
0.7339
0.7379
0.7414
0.7444
0.7478
0.7508
0.7552
0.7624
0.7732
0.7857
0.7965
0.8039
0.8088
0.812
0.8154
0.8199
0.8238
0.8258
0.8245
0.8213
0.8154
0.8092
0.8008
0.7926
0.7834
0.7771
0.7724
0.7719
0.7733
0.7748
0.7761
0.7775
0.7789
0.7804
0.782
0.7837
0.7855
0.7874
0.7894
0.7914
0.7937
0.7964
0.7992
0.8024
0.8058
0.8094
0.8133
0.817
0.8207
0.8243
0.8278
0.8315
0.8353
0.8386
0.8418
0.8447
0.8474
0.8502
0.8532
0.8561
0.8587
0.8611
0.8635
0.8662
0.8692
0.8722
0.8751
0.8778
0.8804
0.8829
0.8855
0.888
0.8905
0.8929
0.8952
0.8975
0.8996
0.9016
0.9033
0.9048
0.9059
0.9079
0.912
0.9179
0.9258
0.9315
0.9345
0.9312
0.9218
0.9068
0.8925
0.09128
0.1469
0.2742
0.5207
0.6447
0.6946
0.7103
0.7351
0.7728
0.7955
0.7603
0.5669
0.1239
0.01618
0.002156
0.0003964
0.0001514
0.0001286
0.0002437
0.0008579
0.004188
0.01927
0.05904
0.1272
0.2332
0.322
0.3702
0.4269
0.433
0.4169
0.3965
0.4241
0.4485
0.5473
0.6559
0.7407
0.7913
0.8373
0.8727
0.8965
0.9146
0.923
0.9234
0.9164
0.9056
0.887
0.864
0.8302
0.7904
0.7429
0.7047
0.6734
0.656
0.6412
0.6348
0.6246
0.6159
0.6144
0.6198
0.63
0.642
0.6535
0.6641
0.6717
0.6775
0.6823
0.6879
0.6951
0.7027
0.709
0.714
0.7178
0.7205
0.7232
0.7257
0.7304
0.7378
0.7486
0.7612
0.7728
0.7826
0.7894
0.794
0.7979
0.8009
0.8028
0.802
0.7974
0.791
0.7818
0.7735
0.7658
0.7603
0.7555
0.7541
0.7537
0.7554
0.7571
0.7587
0.7603
0.762
0.7637
0.7657
0.7677
0.7698
0.772
0.7743
0.7769
0.7798
0.7834
0.7872
0.7912
0.7953
0.7996
0.804
0.8083
0.8125
0.8165
0.8205
0.8245
0.8285
0.8322
0.8356
0.8388
0.842
0.8452
0.8485
0.8519
0.855
0.8578
0.8604
0.8632
0.8662
0.8693
0.8724
0.8752
0.8779
0.8805
0.8831
0.8857
0.8881
0.8905
0.8928
0.895
0.897
0.8989
0.9005
0.9018
0.9028
0.9047
0.9089
0.9159
0.9232
0.9312
0.9354
0.9375
0.9357
0.9283
0.915
0.8986
0.09003
0.1627
0.3379
0.61
0.726
0.7584
0.7376
0.7133
0.7393
0.7755
0.7562
0.5491
0.08848
0.006137
0.0005089
8.802e-05
4.519e-05
6.539e-05
0.0002402
0.001536
0.01016
0.04722
0.1148
0.1819
0.2675
0.3204
0.3608
0.4238
0.4496
0.4356
0.438
0.4357
0.4151
0.4597
0.5328
0.6045
0.6631
0.7154
0.7557
0.7809
0.8025
0.8117
0.8093
0.7985
0.784
0.763
0.741
0.7062
0.675
0.6437
0.6278
0.6148
0.6038
0.5833
0.57
0.5585
0.5538
0.5612
0.5736
0.5877
0.6018
0.615
0.6262
0.634
0.6404
0.6463
0.6536
0.6633
0.6722
0.6793
0.6845
0.6883
0.6911
0.694
0.6971
0.7019
0.7091
0.7184
0.7299
0.7413
0.7526
0.7617
0.7672
0.7707
0.7716
0.7704
0.7667
0.7598
0.7505
0.7416
0.7336
0.7292
0.728
0.7281
0.7303
0.7323
0.7343
0.7362
0.7381
0.7401
0.7423
0.7446
0.747
0.7495
0.752
0.755
0.7582
0.7622
0.7665
0.7715
0.7764
0.7816
0.7866
0.7916
0.7963
0.8011
0.8058
0.8103
0.8147
0.8191
0.8233
0.8273
0.8311
0.8347
0.8383
0.8419
0.8456
0.8493
0.8526
0.8557
0.8587
0.8618
0.8649
0.8681
0.8712
0.874
0.8767
0.8793
0.8819
0.8845
0.8869
0.8892
0.8913
0.8933
0.8951
0.8966
0.8978
0.9001
0.9027
0.9072
0.914
0.9226
0.9305
0.9373
0.9412
0.9435
0.9437
0.9363
0.9225
0.8992
0.08776
0.1763
0.3989
0.6654
0.7657
0.8
0.7752
0.7178
0.744
0.782
0.7756
0.5475
0.06664
0.003005
0.0002215
4.878e-05
4.396e-05
0.0001214
0.0007297
0.00575
0.03567
0.1275
0.2322
0.2776
0.331
0.3452
0.3497
0.3919
0.4187
0.4039
0.4288
0.433
0.4031
0.3837
0.4034
0.4321
0.4667
0.5135
0.5527
0.5753
0.5956
0.6044
0.6022
0.5961
0.5908
0.5876
0.5873
0.5744
0.5714
0.5643
0.5631
0.5568
0.5444
0.5192
0.5057
0.4991
0.503
0.5157
0.5293
0.5422
0.5561
0.5705
0.5825
0.5916
0.5988
0.6067
0.6163
0.6281
0.6375
0.6447
0.6496
0.6535
0.6569
0.6613
0.6653
0.6702
0.6763
0.6835
0.6921
0.7017
0.7131
0.7228
0.7294
0.7322
0.7309
0.727
0.721
0.7137
0.7053
0.6994
0.6957
0.6959
0.6982
0.7008
0.7034
0.7059
0.7083
0.7106
0.713
0.7155
0.7182
0.7209
0.7238
0.7271
0.7307
0.7352
0.7401
0.7453
0.7502
0.7558
0.7611
0.7666
0.7722
0.7777
0.7827
0.7878
0.7936
0.7996
0.8059
0.8119
0.8171
0.8214
0.8256
0.8297
0.8338
0.838
0.842
0.8459
0.8493
0.8526
0.8558
0.8591
0.8624
0.8657
0.8686
0.8715
0.8742
0.8769
0.8795
0.8819
0.8842
0.8864
0.8884
0.8902
0.8916
0.8927
0.8949
0.8998
0.9055
0.913
0.9215
0.93
0.9365
0.9419
0.9434
0.9429
0.9416
0.9318
0.915
0.8861
0.09213
0.196
0.4429
0.6941
0.7851
0.8202
0.7965
0.7318
0.7452
0.7733
0.7683
0.5182
0.05531
0.002413
0.0002158
7.609e-05
0.0001316
0.0005879
0.003907
0.02618
0.112
0.2611
0.3609
0.3728
0.3806
0.3621
0.3441
0.3659
0.3918
0.3945
0.4261
0.4312
0.3937
0.3383
0.3079
0.2878
0.2864
0.3073
0.327
0.3354
0.3473
0.3607
0.3757
0.3959
0.4204
0.4368
0.4438
0.445
0.4609
0.4745
0.4879
0.4885
0.4735
0.4516
0.4474
0.4509
0.4612
0.4745
0.4871
0.4978
0.5103
0.5239
0.5354
0.5449
0.5537
0.5639
0.5751
0.588
0.5969
0.6031
0.6071
0.6118
0.6176
0.6238
0.629
0.6341
0.6392
0.6442
0.6502
0.6577
0.6681
0.6767
0.6824
0.6851
0.683
0.6785
0.6732
0.6679
0.6622
0.6602
0.6602
0.6624
0.6651
0.6681
0.6712
0.6742
0.6772
0.68
0.6828
0.6857
0.6887
0.6917
0.695
0.6994
0.7044
0.7107
0.7173
0.7239
0.7295
0.7354
0.7411
0.747
0.753
0.7588
0.7643
0.7701
0.7772
0.785
0.7927
0.8003
0.8073
0.8132
0.8188
0.824
0.8287
0.8333
0.8376
0.8415
0.8451
0.8485
0.8519
0.8554
0.8588
0.862
0.8649
0.8678
0.8705
0.8732
0.8756
0.878
0.8802
0.8822
0.8839
0.8854
0.8864
0.8885
0.8936
0.9021
0.9112
0.9212
0.9293
0.9358
0.9386
0.94
0.9359
0.9298
0.9247
0.9129
0.893
0.8579
0.1005
0.2143
0.457
0.6899
0.7795
0.8177
0.8075
0.7526
0.7429
0.7445
0.71
0.3959
0.05323
0.003755
0.0005596
0.0003261
0.0008292
0.004222
0.02402
0.09928
0.2568
0.3841
0.4155
0.4019
0.4025
0.3933
0.3858
0.3807
0.3864
0.388
0.4108
0.4195
0.3815
0.3273
0.2797
0.2461
0.2304
0.228
0.2302
0.2339
0.2388
0.2439
0.2526
0.2664
0.2839
0.2979
0.3072
0.3218
0.349
0.3786
0.3974
0.4029
0.3936
0.3883
0.3964
0.4075
0.4218
0.4351
0.4467
0.4551
0.4669
0.4793
0.4899
0.4985
0.5079
0.5184
0.5298
0.5422
0.5504
0.5556
0.5608
0.567
0.5745
0.5817
0.5877
0.5924
0.5962
0.6004
0.6054
0.6115
0.62
0.6268
0.6297
0.6326
0.6312
0.6272
0.6236
0.6201
0.6167
0.6172
0.6196
0.6229
0.6263
0.6297
0.6333
0.6368
0.6403
0.6432
0.6461
0.649
0.6527
0.6566
0.6615
0.6676
0.6745
0.6826
0.691
0.6983
0.7047
0.7107
0.7165
0.7227
0.7293
0.7359
0.7426
0.7497
0.7581
0.767
0.776
0.7848
0.793
0.8009
0.8089
0.8163
0.8225
0.828
0.8323
0.8362
0.8397
0.8433
0.8469
0.8505
0.8539
0.857
0.8599
0.8627
0.8654
0.8679
0.8702
0.8724
0.8744
0.8761
0.8776
0.8786
0.8808
0.886
0.895
0.9067
0.9183
0.9276
0.9324
0.9345
0.9316
0.9271
0.9163
0.905
0.8912
0.8755
0.8521
0.8183
0.107
0.2107
0.4385
0.6664
0.7704
0.8159
0.8193
0.7851
0.7398
0.6786
0.5619
0.2608
0.06116
0.01013
0.002836
0.002246
0.006017
0.02628
0.09965
0.247
0.3908
0.4195
0.4128
0.3982
0.4057
0.412
0.4162
0.4035
0.3938
0.3814
0.3744
0.3606
0.323
0.2789
0.2404
0.2193
0.2092
0.2049
0.2025
0.2019
0.2029
0.2053
0.2123
0.2222
0.233
0.2418
0.2494
0.2651
0.285
0.3085
0.3219
0.3279
0.3252
0.333
0.3489
0.3659
0.383
0.396
0.4076
0.4171
0.4287
0.4396
0.4493
0.457
0.466
0.4739
0.4833
0.4936
0.5001
0.506
0.5135
0.5214
0.5296
0.5364
0.5415
0.5458
0.5494
0.5542
0.5592
0.5653
0.5712
0.5759
0.5771
0.5794
0.5805
0.581
0.5793
0.5761
0.5726
0.5726
0.5745
0.5776
0.5808
0.5838
0.5874
0.5914
0.5952
0.5988
0.6028
0.6071
0.6125
0.6182
0.6251
0.6327
0.6417
0.651
0.6608
0.6691
0.6764
0.6834
0.6903
0.6975
0.7055
0.7136
0.7216
0.7298
0.7389
0.7481
0.7567
0.7661
0.7752
0.7852
0.7957
0.8058
0.8141
0.821
0.8258
0.8296
0.8333
0.837
0.8407
0.8442
0.8474
0.8504
0.8532
0.8559
0.8584
0.8607
0.8629
0.8648
0.8666
0.868
0.8711
0.8746
0.8806
0.8895
0.9008
0.9128
0.9235
0.9293
0.9285
0.9243
0.9134
0.9007
0.8808
0.8636
0.8453
0.8293
0.8083
0.781
0.1134
0.2121
0.4253
0.651
0.7723
0.8208
0.8318
0.8176
0.7614
0.6317
0.4307
0.2008
0.07577
0.02882
0.01478
0.01472
0.03416
0.1053
0.2433
0.3776
0.4262
0.4099
0.4128
0.4111
0.4235
0.4368
0.4442
0.4383
0.4017
0.3661
0.3348
0.3104
0.2798
0.2496
0.2193
0.204
0.197
0.1962
0.1965
0.1986
0.202
0.2066
0.2119
0.2174
0.2215
0.2255
0.2316
0.2469
0.264
0.2789
0.2891
0.2936
0.2941
0.304
0.3172
0.3315
0.3468
0.3604
0.3731
0.3836
0.3951
0.4064
0.4158
0.4213
0.4303
0.434
0.4392
0.4452
0.4531
0.4607
0.4718
0.4801
0.486
0.4905
0.4941
0.4984
0.5023
0.5075
0.5122
0.5186
0.5228
0.5255
0.5262
0.5293
0.5313
0.5332
0.533
0.5315
0.5317
0.5362
0.5384
0.5388
0.5366
0.5333
0.534
0.5389
0.5441
0.5498
0.5563
0.5629
0.571
0.5787
0.5882
0.5975
0.6078
0.6181
0.6289
0.6386
0.6477
0.6568
0.6657
0.6748
0.6844
0.6938
0.7031
0.7121
0.7211
0.73
0.7384
0.7477
0.7569
0.7673
0.7799
0.793
0.8037
0.8123
0.8179
0.8217
0.8254
0.8292
0.8328
0.8362
0.8392
0.8419
0.8445
0.847
0.8493
0.8514
0.8558
0.8612
0.8666
0.871
0.8765
0.8807
0.8876
0.8969
0.9081
0.9171
0.9235
0.9232
0.9144
0.9009
0.8776
0.8564
0.8339
0.8144
0.7932
0.7826
0.7745
0.7601
0.1104
0.1959
0.3963
0.6362
0.7791
0.8268
0.8439
0.8412
0.7856
0.6384
0.3756
0.1703
0.08932
0.06503
0.0545
0.0653
0.1138
0.2392
0.3739
0.4282
0.4306
0.4245
0.4393
0.445
0.4436
0.4373
0.4289
0.4171
0.3889
0.3318
0.2852
0.2563
0.2306
0.2109
0.1951
0.1854
0.1813
0.1862
0.1908
0.1961
0.2018
0.2096
0.2172
0.2247
0.2295
0.2355
0.2434
0.2538
0.2627
0.2694
0.2759
0.2808
0.2869
0.2966
0.3064
0.3167
0.3285
0.3395
0.3502
0.3604
0.3709
0.3808
0.3889
0.3957
0.4039
0.4051
0.4053
0.4071
0.4136
0.4215
0.4342
0.4408
0.4436
0.4465
0.4498
0.4544
0.4586
0.4634
0.4662
0.4698
0.4721
0.4731
0.4736
0.4769
0.4807
0.4856
0.4897
0.492
0.4983
0.5067
0.5084
0.5063
0.4974
0.4857
0.48
0.4829
0.4888
0.4981
0.5084
0.5184
0.5298
0.5403
0.5518
0.5628
0.5744
0.586
0.5983
0.6104
0.6227
0.6347
0.6463
0.6577
0.6688
0.6796
0.69
0.6995
0.7082
0.7163
0.7238
0.732
0.7404
0.7503
0.763
0.7768
0.7899
0.8003
0.8075
0.8119
0.8156
0.8193
0.8229
0.826
0.8314
0.838
0.8449
0.8508
0.8551
0.8569
0.8622
0.8664
0.8696
0.8708
0.8739
0.8761
0.8845
0.8931
0.9038
0.9109
0.9134
0.9069
0.8891
0.8611
0.8305
0.8038
0.7852
0.7743
0.7644
0.7617
0.76
0.7472
0.09667
0.1701
0.3487
0.6164
0.7823
0.8309
0.8511
0.855
0.8169
0.6876
0.4406
0.1952
0.1176
0.1093
0.1384
0.1892
0.2601
0.3821
0.4397
0.4511
0.4468
0.4534
0.4676
0.4702
0.4502
0.4146
0.3844
0.3596
0.3406
0.3196
0.2819
0.2558
0.2269
0.1983
0.1738
0.164
0.1615
0.1697
0.1806
0.1898
0.1974
0.2048
0.2129
0.2217
0.2299
0.2406
0.2537
0.2647
0.2724
0.2775
0.2807
0.2839
0.2914
0.2979
0.3048
0.3123
0.3214
0.3298
0.3389
0.3483
0.3574
0.366
0.3736
0.3809
0.3916
0.3903
0.3869
0.3821
0.3831
0.3874
0.4003
0.4055
0.4066
0.4084
0.4107
0.4143
0.4168
0.4182
0.418
0.4175
0.4156
0.4145
0.417
0.4235
0.431
0.4393
0.4461
0.451
0.4615
0.4725
0.4739
0.4683
0.4522
0.4345
0.4248
0.427
0.4328
0.4458
0.4609
0.4751
0.4896
0.5033
0.5175
0.5311
0.545
0.559
0.5734
0.5879
0.6021
0.6157
0.6289
0.6418
0.6545
0.6666
0.6776
0.6877
0.6968
0.7052
0.7132
0.7211
0.7283
0.7358
0.7462
0.7604
0.778
0.7945
0.8077
0.8162
0.8214
0.8249
0.8283
0.8315
0.8384
0.8467
0.8529
0.8561
0.8567
0.8541
0.8572
0.8606
0.8637
0.863
0.864
0.8641
0.8705
0.8772
0.8858
0.8887
0.8848
0.8702
0.842
0.8076
0.78
0.7634
0.7554
0.7515
0.7446
0.737
0.7307
0.719
0.0858
0.1514
0.3189
0.6024
0.7853
0.8338
0.8525
0.8549
0.8274
0.7172
0.4865
0.2264
0.1479
0.1675
0.2693
0.3936
0.4359
0.4702
0.4662
0.4581
0.4532
0.4628
0.4753
0.466
0.4173
0.3268
0.2682
0.2436
0.2516
0.2701
0.2768
0.2468
0.2114
0.1736
0.1458
0.1356
0.1362
0.1479
0.1652
0.1768
0.1836
0.1883
0.1939
0.2015
0.2126
0.2264
0.2422
0.2569
0.2687
0.2774
0.2825
0.2871
0.293
0.2973
0.3011
0.306
0.3131
0.3208
0.3298
0.3395
0.3494
0.3594
0.3688
0.3786
0.3917
0.3903
0.3798
0.3665
0.3565
0.3534
0.3647
0.3701
0.3712
0.3724
0.3739
0.3743
0.374
0.3729
0.371
0.3686
0.3705
0.3733
0.3801
0.3889
0.397
0.3985
0.4032
0.406
0.4148
0.422
0.4191
0.4121
0.3981
0.3822
0.3728
0.3744
0.3794
0.3955
0.4142
0.4332
0.4514
0.4681
0.4849
0.5014
0.5181
0.5349
0.5518
0.5681
0.5839
0.5987
0.6132
0.6275
0.6416
0.6547
0.6663
0.6766
0.6877
0.6992
0.7104
0.7205
0.7288
0.7347
0.742
0.7542
0.7718
0.7924
0.8108
0.8241
0.8323
0.8372
0.8381
0.8373
0.8399
0.8452
0.8496
0.8515
0.8496
0.8442
0.8449
0.8464
0.8458
0.8409
0.8391
0.8374
0.8421
0.8445
0.8478
0.8431
0.8303
0.8029
0.7741
0.7475
0.7367
0.7365
0.7348
0.7272
0.7139
0.7005
0.6891
0.6784
0.08468
0.1454
0.3105
0.6005
0.7818
0.8289
0.8484
0.8479
0.8255
0.7457
0.5706
0.3287
0.2353
0.2888
0.4556
0.5653
0.566
0.5286
0.4829
0.4565
0.4515
0.4549
0.4466
0.4085
0.3194
0.2199
0.1613
0.1435
0.1612
0.1972
0.2383
0.2441
0.2025
0.159
0.1316
0.117
0.115
0.1249
0.1456
0.1583
0.1634
0.1621
0.1629
0.1677
0.1802
0.1949
0.2119
0.2293
0.2457
0.2592
0.2679
0.2744
0.2793
0.2827
0.2858
0.2899
0.296
0.3028
0.3108
0.3211
0.3339
0.3457
0.3568
0.3685
0.384
0.3815
0.3684
0.3479
0.3316
0.3238
0.3333
0.3383
0.3393
0.3392
0.3379
0.337
0.3363
0.336
0.3353
0.3333
0.3364
0.3405
0.349
0.3552
0.3581
0.3468
0.3396
0.3335
0.3379
0.343
0.344
0.3419
0.3356
0.33
0.3272
0.3297
0.3339
0.3494
0.3697
0.3923
0.4144
0.4351
0.4554
0.4755
0.4952
0.5145
0.5332
0.5514
0.5687
0.5857
0.6027
0.6196
0.6361
0.6514
0.6646
0.6759
0.6884
0.7013
0.7136
0.7246
0.7332
0.7385
0.7438
0.7539
0.7699
0.7914
0.8137
0.8314
0.8409
0.8448
0.8413
0.8344
0.8312
0.8334
0.8328
0.8322
0.8259
0.8178
0.8154
0.8152
0.8127
0.8082
0.8037
0.7966
0.7949
0.7884
0.782
0.7662
0.7384
0.7093
0.6875
0.6783
0.684
0.6937
0.6923
0.6848
0.6689
0.6515
0.6338
0.6228
0.08265
0.1386
0.3012
0.5974
0.7748
0.8214
0.8424
0.8434
0.8263
0.7727
0.648
0.4758
0.4121
0.5043
0.6162
0.6741