/*--------------------------------*- C++ -*----------------------------------*\
| =========                 |                                                 |
| \\      /  F ield         | OpenFOAM: The Open Source CFD Toolbox           |
|  \\    /   O peration     | Version:  5.x                                   |
|   \\  /    A nd           | Web:      www.OpenFOAM.org                      |
|    \\/     M anipulation  |                                                 |
\*---------------------------------------------------------------------------*/
FoamFile
{
    version     2.0;
    format      ascii;
    class       volScalarField;
    location    "145";
    object      gamma;
}
// * * * * * * * * * * * * * * * * * * * * * * * * * * * * * * * * * * * * * //

dimensions      [0 0 0 0 0 0 0];

internalField   nonuniform List<scalar> 
86400
(
4.199e-07
5.691e-07
9.525e-07
2.126e-06
5.088e-06
9.056e-06
1.049e-05
1.255e-05
1.576e-05
1.609e-05
1.582e-05
1.097e-05
6.742e-06
3.178e-06
4.95e-06
1.338e-05
8.308e-05
0.0002024
0.0004129
0.0003151
0.0003181
0.0003959
0.0007429
0.0008018
0.0009541
0.001597
0.00209
0.002895
0.0034
0.003848
0.003629
0.003577
0.003419
0.003214
0.003177
0.003677
0.003646
0.003452
0.002775
0.002622
0.002432
0.002623
0.002336
0.001842
0.001735
0.001964
0.002643
0.00319
0.0036
0.003366
0.003422
0.003619
0.003818
0.003917
0.003975
0.004422
0.005117
0.00563
0.005874
0.0058
0.005113
0.00509
0.004713
0.004768
0.005568
0.006886
0.008097
0.00856
0.006988
0.006204
0.006913
0.008512
0.01098
0.01006
0.008716
0.006957
0.005259
0.004813
0.005405
0.00606
0.007761
0.008626
0.008096
0.007309
0.006969
0.006281
0.00658
0.006657
0.007284
0.007868
0.007416
0.008239
0.009347
0.01221
0.01366
0.01471
0.0131
0.01296
0.01307
0.01266
0.01184
0.01222
0.01095
0.009283
0.006065
0.005591
0.006109
0.009252
0.01023
0.01032
0.008032
0.007041
0.005934
0.004565
0.003017
0.002206
0.001899
0.001805
0.001654
0.001579
0.001666
0.001774
0.002072
0.002222
0.002109
0.001964
0.001799
0.001679
0.001517
0.001273
0.0008928
0.0007138
0.0006213
0.0005684
0.0005363
0.000568
0.000663
0.0008072
0.0004157
0.0001087
3.121e-05
2.602e-05
3.429e-05
3.993e-05
2.267e-05
5.41e-06
1.052e-06
3.469e-07
2.869e-07
3.067e-07
8.828e-07
2.215e-06
8.698e-06
2.067e-05
7.754e-05
0.0002269
0.0005331
0.0008331
0.07901
0.9894
5.657e-07
6.779e-07
1.058e-06
1.909e-06
3.913e-06
6.117e-06
6.572e-06
7.338e-06
7.973e-06
5.577e-06
5.017e-06
4.455e-06
4.344e-06
4.76e-06
9.26e-06
2.194e-05
7.707e-05
0.0002025
0.0004545
0.0005389
0.0007106
0.001169
0.002136
0.002692
0.003189
0.00362
0.003176
0.002838
0.002554
0.00232
0.002081
0.002345
0.002713
0.003149
0.00366
0.004497
0.004735
0.00504
0.004763
0.004717
0.004263
0.004224
0.003843
0.003297
0.003134
0.003585
0.004348
0.00524
0.006177
0.00648
0.007185
0.008224
0.009292
0.01013
0.01025
0.009098
0.007695
0.006636
0.005883
0.00566
0.005487
0.005704
0.005235
0.005365
0.006362
0.009045
0.01103
0.01208
0.0105
0.01003
0.01138
0.01204
0.01099
0.008158
0.00615
0.005535
0.006625
0.008558
0.01025
0.01085
0.01239
0.01343
0.01467
0.01507
0.01537
0.01452
0.01545
0.01598
0.01874
0.02228
0.0238
0.02667
0.02772
0.02706
0.02474
0.02277
0.01976
0.01692
0.01353
0.01206
0.01182
0.01439
0.01819
0.01626
0.008968
0.00667
0.006456
0.00801
0.01055
0.01169
0.008856
0.008227
0.008505
0.008605
0.007579
0.006139
0.005065
0.004605
0.004188
0.003986
0.00393
0.003626
0.003517
0.003378
0.003203
0.003417
0.003538
0.003642
0.003293
0.00264
0.001756
0.001406
0.00123
0.00139
0.001573
0.001523
0.001424
0.001261
0.0006429
0.0002177
0.0001165
7.896e-05
5.607e-05
3.549e-05
1.531e-05
4.415e-06
1.835e-06
1.682e-06
3.339e-06
5.789e-06
1.111e-05
2.511e-05
8.241e-05
0.0002282
0.001039
0.005436
0.02812
0.272
0.8884
0.9966
9.89e-07
1.121e-06
1.466e-06
2.008e-06
3.478e-06
4.629e-06
4.555e-06
4.86e-06
4.587e-06
3.304e-06
3.335e-06
4.337e-06
5.818e-06
9.413e-06
1.927e-05
5.734e-05
0.0001781
0.0005402
0.0009913
0.001343
0.001369
0.002188
0.003346
0.004254
0.005575
0.007438
0.007165
0.006349
0.00543
0.004209
0.003799
0.004827
0.005651
0.005947
0.00561
0.005478
0.005067
0.005368
0.00513
0.004629
0.003599
0.003305
0.002999
0.003164
0.003884
0.005384
0.006983
0.009059
0.01163
0.01084
0.008907
0.007083
0.005849
0.005424
0.006023
0.005553
0.00502
0.004475
0.004237
0.004285
0.004682
0.005286
0.005321
0.006357
0.007055
0.00813
0.008997
0.009566
0.008757
0.008769
0.009448
0.008146
0.006528
0.00571
0.005805
0.008618
0.01435
0.02009
0.0223
0.02312
0.02449
0.02625
0.02924
0.03145
0.03487
0.03423
0.03419
0.03273
0.02644
0.01942
0.01299
0.009167
0.008552
0.01065
0.01263
0.01451
0.01543
0.01201
0.009099
0.008283
0.00837
0.01016
0.01327
0.01102
0.006359
0.005426
0.006571
0.009624
0.01524
0.01603
0.01308
0.0145
0.01687
0.01792
0.01519
0.01197
0.008732
0.007209
0.006094
0.00571
0.005056
0.004801
0.004429
0.003964
0.003535
0.003655
0.003642
0.003736
0.003416
0.002829
0.002052
0.001711
0.0015
0.001806
0.002153
0.001898
0.001551
0.001145
0.0006188
0.0002497
0.0001534
9.898e-05
7.7e-05
5.676e-05
3.358e-05
1.567e-05
8.151e-06
9.453e-06
2.102e-05
5.667e-05
0.000138
0.0002995
0.0007991
0.002491
0.01289
0.09379
0.556
0.9428
0.9953
0.9998
1.937e-06
1.976e-06
2.114e-06
2.231e-06
2.968e-06
3.016e-06
2.528e-06
2.502e-06
2.488e-06
2.309e-06
3.172e-06
3.175e-06
3.265e-06
6.481e-06
1.85e-05
4.878e-05
0.0001516
0.0003083
0.0002339
0.0002131
0.0001881
0.0002266
0.0004157
0.0006961
0.00118
0.002227
0.003154
0.003531
0.003735
0.003445
0.003335
0.005042
0.006991
0.008257
0.007537
0.006672
0.005781
0.006354
0.006376
0.005715
0.004466
0.004439
0.005039
0.007014
0.008133
0.008473
0.006957
0.006245
0.006567
0.005889
0.004235
0.003268
0.003022
0.002868
0.003345
0.002892
0.002243
0.001971
0.002355
0.003116
0.004128
0.005347
0.006133
0.00737
0.007693
0.007845
0.007405
0.007012
0.006218
0.008039
0.01087
0.009879
0.009061
0.009353
0.00882
0.01438
0.02319
0.02767
0.02441
0.02546
0.02163
0.01818
0.01561
0.01254
0.01064
0.0103
0.009794
0.009268
0.008183
0.007534
0.006736
0.005795
0.006434
0.008231
0.009771
0.01101
0.01256
0.00907
0.006679
0.006021
0.006435
0.008352
0.01236
0.01134
0.006674
0.004343
0.004
0.0055
0.007908
0.008648
0.007302
0.007427
0.007062
0.009659
0.01088
0.01241
0.01168
0.01244
0.01056
0.01028
0.008459
0.00798
0.006716
0.00573
0.00504
0.005261
0.00562
0.006066
0.00598
0.005283
0.004053
0.003565
0.003387
0.003657
0.003511
0.002311
0.001329
0.0006205
0.0004297
0.0002518
0.0002041
0.0001406
0.0001154
8.654e-05
6.801e-05
5.303e-05
4.951e-05
0.0001243
0.0004502
0.001213
0.002701
0.006102
0.01455
0.05473
0.2793
0.8112
0.9698
0.9988
1
1
4.69e-06
3.93e-06
3.467e-06
3.09e-06
2.922e-06
2.496e-06
1.711e-06
1.606e-06
1.887e-06
2.117e-06
3.564e-06
2.562e-06
1.135e-06
1.865e-06
7.933e-06
3.503e-05
0.0002482
0.0002646
8.933e-05
4.301e-05
4.27e-05
5.292e-05
0.0001078
0.0001323
0.0002363
0.0006891
0.002288
0.005702
0.01003
0.007351
0.004316
0.003995
0.003595
0.003314
0.003101
0.002703
0.002108
0.002829
0.004322
0.005757
0.004312
0.002637
0.001445
0.001241
0.001044
0.0009686
0.0009019
0.001194
0.002098
0.00307
0.002656
0.001808
0.002048
0.002427
0.003092
0.002524
0.0017
0.00161
0.002239
0.003804
0.006342
0.009811
0.0134
0.01609
0.01376
0.009267
0.006931
0.005239
0.003818
0.004004
0.005289
0.004868
0.006294
0.009385
0.01045
0.01152
0.01247
0.009113
0.005953
0.005567
0.003732
0.002378
0.001931
0.001828
0.002127
0.003294
0.004266
0.00414
0.003812
0.003753
0.00316
0.003122
0.004173
0.005704
0.008479
0.009671
0.01059
0.007452
0.00589
0.004289
0.002555
0.001891
0.002623
0.003485
0.004246
0.005156
0.005528
0.006806
0.007947
0.007547
0.005349
0.004578
0.003728
0.005915
0.006114
0.006479
0.005437
0.005461
0.003962
0.004371
0.003941
0.00396
0.003506
0.002958
0.002592
0.002544
0.00256
0.002955
0.003418
0.003668
0.00359
0.003421
0.003128
0.002767
0.002202
0.001229
0.0006201
0.0003438
0.0002666
0.0001777
0.0001681
0.0001422
0.0001745
0.0002359
0.0003176
0.0003709
0.0004316
0.000774
0.002515
0.007854
0.02216
0.0713
0.2451
0.6753
0.9284
0.9914
0.9994
1
1
1
7.833e-06
5.834e-06
4.856e-06
4.159e-06
2.994e-06
2.137e-06
1.578e-06
1.533e-06
2.286e-06
3.66e-06
8.152e-06
3.929e-06
1.013e-06
8.196e-07
5.852e-06
2.253e-05
0.0001625
0.0001266
4.02e-05
1.809e-05
3.353e-05
5.005e-05
0.0001022
6.142e-05
5.881e-05
0.0001007
0.0002586
0.0009842
0.002991
0.00261
0.001383
0.0009727
0.0007814
0.0007502
0.001028
0.00109
0.0006671
0.0006516
0.0008564
0.0007227
0.0003053
0.0001401
4.154e-05
1.959e-05
1.278e-05
6.965e-06
3.274e-06
4.562e-06
1.269e-05
3.557e-05
5.659e-05
8.345e-05
0.0001679
0.0004939
0.0009657
0.0008101
0.0004014
0.0003215
0.0004862
0.001294
0.003055
0.005483
0.006518
0.007816
0.007101
0.004851
0.005258
0.00456
0.003222
0.003034
0.004246
0.003898
0.005349
0.006383
0.004213
0.002209
0.001122
0.0007215
0.0007123
0.001158
0.001334
0.001165
0.0009055
0.0009393
0.001293
0.002517
0.004308
0.004835
0.005507
0.006345
0.007309
0.006295
0.006593
0.006413
0.006082
0.006067
0.005678
0.00485
0.005556
0.005144
0.003329
0.002098
0.002057
0.002497
0.003818
0.004849
0.00363
0.003967
0.004184
0.003799
0.00198
0.001206
0.0007309
0.001255
0.001763
0.002532
0.002498
0.002319
0.001768
0.001956
0.00171
0.001641
0.001451
0.00123
0.001107
0.001083
0.001068
0.001273
0.00155
0.00179
0.001862
0.001899
0.001854
0.001599
0.001431
0.0009132
0.0007075
0.0005492
0.0005414
0.000412
0.0004438
0.0004663
0.0005856
0.0008466
0.001386
0.002147
0.003923
0.009017
0.02857
0.09094
0.2998
0.6521
0.9119
0.9838
0.9988
0.9999
1
1
1
1
1.033e-05
6.442e-06
4.659e-06
3.36e-06
2.763e-06
2.395e-06
2.428e-06
2.87e-06
5.74e-06
9.73e-06
1.82e-05
7.852e-06
9.82e-07
5.615e-07
2.901e-06
1.682e-05
0.0002356
0.0005086
0.0002166
0.0001252
0.000312
0.0003706
0.0005475
0.0001951
9.678e-05
0.0001061
0.000214
0.0006005
0.002023
0.002014
0.001196
0.0005477
0.0004015
0.0004492
0.0007224
0.0007807
0.0003489
0.0002352
0.0003122
0.0002239
5.433e-05
1.126e-05
1.158e-06
2.301e-07
1.111e-07
2.94e-08
1.206e-08
2.448e-08
1.595e-07
9.692e-07
3.117e-06
3.708e-06
4.401e-06
8.215e-06
9.325e-06
1.195e-05
1.661e-05
3.961e-05
0.0001502
0.0006693
0.001657
0.003409
0.004782
0.00769
0.008074
0.004648
0.004872
0.003965
0.002906
0.00216
0.002696
0.001973
0.002855
0.003427
0.002526
0.001269
0.0006023
0.0004046
0.0003967
0.0007173
0.001137
0.001468
0.001613
0.001886
0.002188
0.002359
0.002757
0.002678
0.004246
0.008995
0.01224
0.01076
0.008281
0.006091
0.004564
0.003143
0.00184
0.001296
0.001463
0.001533
0.001583
0.001125
0.001203
0.002237
0.005516
0.007666
0.006035
0.005513
0.004695
0.002975
0.001429
0.0006111
0.0003295
0.0005524
0.001077
0.001493
0.001398
0.001055
0.0007576
0.0008222
0.0008021
0.0008377
0.000832
0.0007684
0.0006783
0.0005793
0.000495
0.0005283
0.0006348
0.0008312
0.0009869
0.001111
0.00113
0.0009176
0.0008824
0.0009576
0.001161
0.001437
0.002098
0.002034
0.002294
0.002949
0.00476
0.009408
0.02508
0.05986
0.1327
0.2814
0.5495
0.8068
0.9367
0.9861
0.9987
0.9999
1
1
1
1
1
1
1.75e-05
7.935e-06
4.56e-06
3.072e-06
2.91e-06
3.023e-06
4.874e-06
7.841e-06
1.146e-05
9.176e-06
1.247e-05
4.639e-06
6.028e-07
5.94e-07
3.78e-06
2.926e-05
0.0004868
0.001979
0.001853
0.002458
0.004355
0.00443
0.004827
0.001793
0.0007015
0.0002708
0.0001703
0.0002346
0.000598
0.0007979
0.0007058
0.0005404
0.0004374
0.0006037
0.00111
0.001371
0.0006247
0.0004252
0.0004596
0.0001328
1.56e-05
1.163e-06
7.588e-08
1.127e-08
9.716e-09
2.798e-09
1.164e-09
1.673e-09
3.923e-09
2e-08
8.076e-08
1.042e-07
1.664e-07
3.868e-07
4.063e-07
4.753e-07
1.125e-06
5.777e-06
4.318e-05
0.0003536
0.001162
0.002744
0.004519
0.009614
0.01019
0.005854
0.00465
0.0032
0.002
0.00136
0.001236
0.0008879
0.001099
0.001601
0.001774
0.001331
0.0006711
0.0005672
0.0006476
0.001414
0.00255
0.004027
0.005321
0.006283
0.005589
0.004586
0.004383
0.003982
0.006027
0.01574
0.02907
0.03162
0.01817
0.01314
0.009157
0.005617
0.003474
0.002734
0.00259
0.003027
0.004556
0.004275
0.003809
0.003538
0.004504
0.004356
0.003648
0.003658
0.003485
0.002234
0.0009113
0.0002122
0.0001192
0.0002238
0.0006151
0.0009983
0.001154
0.0006452
0.0004224
0.0004504
0.000474
0.0004895
0.0004962
0.0004924
0.0004728
0.000445
0.0004217
0.0004849
0.0006222
0.0008669
0.001156
0.001437
0.001547
0.00135
0.001501
0.002119
0.003843
0.006921
0.01328
0.02067
0.03805
0.06814
0.1229
0.2017
0.4235
0.6888
0.8488
0.9432
0.9832
0.9966
0.9994
0.9999
1
1
1
1
1
1
1
1
3.085e-05
9.084e-06
4.01e-06
2.402e-06
2.589e-06
3.708e-06
1.126e-05
1.281e-05
9.653e-06
5.072e-06
3.388e-06
1.687e-06
7.425e-07
1.645e-06
1.242e-05
7.465e-05
0.0002979
0.0006872
0.0006371
0.0007231
0.001869
0.005217
0.01145
0.01157
0.008365
0.002507
0.0007224
0.0003621
0.0004575
0.0006725
0.001012
0.000911
0.0006161
0.0007458
0.001042
0.001216
0.0006601
0.0005148
0.000699
8.035e-05
3.755e-06
1.167e-07
5.518e-09
1.323e-09
5.256e-09
3.878e-09
2.26e-09
2.172e-09
2.177e-09
3.167e-09
1.365e-08
2.733e-08
7.478e-08
1.133e-07
7.183e-08
3.847e-08
7.885e-08
6.464e-07
9.685e-06
0.0001745
0.000992
0.002658
0.003936
0.006771
0.00574
0.002868
0.001822
0.001356
0.0007223
0.0005277
0.0003992
0.0002978
0.0003735
0.0007883
0.001485
0.00344
0.004204
0.00618
0.01181
0.04867
0.1948
0.4893
0.6122
0.5934
0.5018
0.4379
0.3892
0.4162
0.4284
0.4961
0.4872
0.4497
0.3973
0.4385
0.3525
0.3266
0.2439
0.1322
0.1003
0.05777
0.04763
0.0245
0.01665
0.01021
0.008423
0.006757
0.007144
0.004546
0.00313
0.00158
0.0005411
0.000137
0.0001132
9.664e-05
0.0001792
0.0002607
0.0003429
0.0002256
0.0001889
0.0001724
0.0001842
0.0002124
0.0002442
0.0002723
0.0002881
0.0003021
0.0003329
0.000442
0.0007011
0.001289
0.002563
0.004832
0.007566
0.01056
0.01676
0.02988
0.06161
0.1194
0.2117
0.3826
0.6065
0.7628
0.8761
0.9429
0.9785
0.9936
0.9981
0.9995
0.9999
1
1
1
1
1
1
1
1
1
1
1
2.7e-05
7.708e-06
4.098e-06
3.013e-06
4.334e-06
7.47e-06
1.441e-05
7.814e-06
3.868e-06
2.258e-06
1.275e-06
1.546e-06
2.109e-06
8.195e-06
6.451e-05
0.0002065
0.0002078
0.0001004
3.894e-05
2.547e-05
7.614e-05
0.0004488
0.002944
0.01013
0.01369
0.004339
0.0009333
0.0003892
0.0003596
0.0008265
0.001789
0.001622
0.0008086
0.0006378
0.0004978
0.0006917
0.0009128
0.001247
0.001327
8.529e-05
2.36e-06
4.887e-08
3.276e-09
1.726e-09
1.625e-08
3.083e-08
1.663e-08
6.104e-09
1.145e-09
5.124e-10
2.567e-09
1.253e-08
9.359e-08
2.156e-07
6.195e-08
1.139e-08
1.461e-08
1.324e-07
5.26e-06
0.0001929
0.00103
0.002093
0.001426
0.001429
0.0008681
0.0005573
0.000454
0.0004743
0.0004041
0.0005557
0.000626
0.0008083
0.001777
0.007803
0.0243
0.09716
0.3827
0.7761
0.9132
0.9708
0.9841
0.9842
0.9836
0.9881
0.992
0.996
0.9976
0.9975
0.9959
0.9949
0.9938
0.9943
0.9957
0.9963
0.995
0.9947
0.9929
0.989
0.9835
0.964
0.9071
0.7986
0.614
0.266
0.09211
0.04088
0.03162
0.01299
0.006539
0.002926
0.0008542
0.000263
0.0002418
0.0001381
0.0002449
0.0004313
0.000841
0.0008376
0.0009339
0.0007804
0.0008793
0.001158
0.001548
0.002016
0.00248
0.00306
0.004056
0.006245
0.0114
0.0202
0.03865
0.07285
0.1288
0.2195
0.4383
0.6197
0.7581
0.8567
0.9302
0.9731
0.991
0.9969
0.9987
0.9995
0.9998
0.9999
1
1
1
1
1
1
1
1
1
1
1
1
1
1
1.252e-05
4.079e-06
3.149e-06
4.188e-06
9.852e-06
1.846e-05
1.302e-05
3.993e-06
1.42e-06
1.031e-06
9.223e-07
2.269e-06
8.358e-06
5.577e-05
0.0001931
0.0003444
9.303e-05
8.311e-06
1.38e-06
8.355e-07
4.246e-06
4.481e-05
0.0009003
0.006055
0.01325
0.005783
0.002481
0.001168
0.0008953
0.001626
0.002288
0.001119
0.0002812
9.068e-05
6.294e-05
9.193e-05
0.0002565
0.0007439
0.001057
0.0001328
5.543e-06
1.407e-07
1.378e-08
1.066e-08
6.683e-08
1.263e-07
8.293e-08
2.203e-08
2.706e-09
9.227e-10
4.073e-09
3.365e-08
5.886e-07
1.839e-06
4.726e-07
4.849e-08
4.111e-08
3.231e-07
1.219e-05
0.0004815
0.00179
0.001636
0.0006717
0.0005477
0.0004725
0.0004847
0.0005367
0.000665
0.0008834
0.001767
0.00374
0.01094
0.04719
0.239
0.625
0.8442
0.9495
0.9895
0.9973
0.9994
0.9997
0.9997
0.9997
0.9999
0.9999
1
1
1
1
1
1
1
1
1
1
1
1
1
0.9999
0.9997
0.9987
0.996
0.9905
0.9795
0.9504
0.8744
0.7881
0.4874
0.1424
0.03513
0.01579
0.005619
0.005358
0.002455
0.002432
0.0034
0.008157
0.009492
0.01186
0.009283
0.009619
0.01183
0.01586
0.02305
0.03649
0.05803
0.09904
0.1857
0.4184
0.6046
0.753
0.8571
0.9392
0.974
0.9902
0.9955
0.9975
0.9985
0.9994
0.9998
0.9999
1
1
1
1
1
1
1
1
1
1
1
1
1
1
1
1
1
1
1
3.937e-06
1.933e-06
2.385e-06
4.299e-06
8.086e-06
1.509e-05
6.631e-06
2.631e-06
1.349e-06
3.017e-06
3.627e-06
1.747e-05
8.441e-05
0.0002666
0.0004294
0.0004591
5.941e-05
3.331e-06
3.761e-07
1.636e-07
1.028e-06
3.227e-05
0.001293
0.007669
0.01325
0.00512
0.002858
0.001737
0.001789
0.002964
0.002935
0.000977
0.0001409
3.547e-05
1.645e-05
2.443e-05
8.88e-05
0.0002537
0.0003151
6.18e-05
4.033e-06
3.018e-07
5.865e-08
5.434e-08
1.294e-07
1.362e-07
7.795e-08
1.352e-08
1.247e-09
4.769e-10
2.134e-09
4.595e-08
2.478e-06
2.295e-05
9.672e-06
8.332e-07
3.382e-07
1.553e-06
3.028e-05
0.0006045
0.00139
0.0008608
0.0002631
0.0001897
0.0002274
0.0004845
0.001303
0.004274
0.0145
0.04358
0.1602
0.471
0.7898
0.9049
0.9672
0.9909
0.9983
0.9998
1
1
1
1
1
1
1
1
1
1
1
1
1
1
1
1
1
1
1
1
1
1
1
1
0.9999
0.9999
0.9997
0.9989
0.9975
0.9923
0.981
0.9509
0.8661
0.6255
0.2751
0.05587
0.03728
0.03022
0.04859
0.06699
0.07877
0.08395
0.1319
0.2631
0.5012
0.6736
0.7774
0.8784
0.945
0.9754
0.9903
0.9952
0.9973
0.9984
0.9994
0.9998
0.9999
1
1
1
1
1
1
1
1
1
1
1
1
1
1
1
1
1
1
1
1
1
1
1
1
1
2.365e-06
2.037e-06
2.755e-06
5.181e-06
9.096e-06
1.471e-05
5.491e-06
2.859e-06
3.02e-06
5.866e-06
1.175e-05
6.69e-05
0.0002346
0.000453
0.0006679
0.0004674
9.093e-05
5.897e-06
6.404e-07
1.991e-07
9.957e-07
2.566e-05
0.001023
0.005952
0.0132
0.008004
0.007286
0.006034
0.006382
0.00749
0.005589
0.001809
0.0003971
0.0001078
3.998e-05
4.197e-05
0.0001205
0.000247
0.000255
8.588e-05
1.558e-05
2.193e-06
8.355e-07
5.963e-07
4.445e-07
4.001e-07
1.79e-07
7.021e-08
1.482e-08
1.11e-08
3.265e-08
3.201e-07
5.489e-06
2.329e-05
1.233e-05
2.367e-06
1.841e-06
7.604e-06
0.000141
0.0009857
0.001102
0.0005217
0.0002274
0.0003464
0.001213
0.005897
0.03152
0.1821
0.6076
0.81
0.9132
0.9677
0.9895
0.9955
0.9992
0.9999
1
1
1
1
1
1
1
1
1
1
1
1
1
1
1
1
1
1
1
1
1
1
1
1
1
1
1
1
1
1
1
0.9999
0.9999
0.9998
0.9996
0.9992
0.9979
0.9922
0.9837
0.968
0.9637
0.9662
0.9706
0.9767
0.983
0.9887
0.9933
0.9961
0.9975
0.9988
0.9995
0.9998
0.9999
1
1
1
1
1
1
1
1
1
1
1
1
1
1
1
1
1
1
1
1
1
1
1
1
1
1
1
1
1
1
1
3.069e-06
3.494e-06
5.881e-06
8.128e-06
1.274e-05
1.575e-05
9.183e-06
6.799e-06
1.521e-05
1.902e-05
3.755e-05
0.000116
0.0002935
0.000367
0.000478
0.0004416
0.0002653
2.806e-05
4.039e-06
9.674e-07
3.214e-06
4.611e-05
0.001057
0.003973
0.006592
0.005582
0.00763
0.009862
0.01212
0.01292
0.009727
0.004927
0.002078
0.0008176
0.0002885
0.0002133
0.0003153
0.0004563
0.000486
0.00033
0.0001175
3.463e-05
2.033e-05
1.419e-05
5.918e-06
5.769e-06
3.683e-06
2.116e-06
6.162e-07
3.813e-07
3.719e-07
1.178e-06
4.373e-06
8.778e-06
5.839e-06
3.592e-06
8.437e-06
7.11e-05
0.0007511
0.002243
0.002052
0.002441
0.004422
0.01898
0.1343
0.561
0.7851
0.9159
0.9701
0.9882
0.9964
0.9994
0.9999
0.9999
1
1
1
1
1
1
1
1
1
1
1
1
1
1
1
1
1
1
1
1
1
1
1
1
1
1
1
1
1
1
1
1
1
1
1
1
1
1
1
1
0.9999
0.9998
0.9997
0.9997
0.9997
0.9998
0.9999
0.9999
0.9999
1
1
1
1
1
1
1
1
1
1
1
1
1
1
1
1
1
1
1
1
1
1
1
1
1
1
1
1
1
1
1
1
1
1
1
1
1
1.003e-05
1.2e-05
2.256e-05
1.326e-05
1.897e-05
1.538e-05
1.742e-05
2.537e-05
6.72e-05
4.112e-05
6.886e-05
5.889e-05
0.0001474
0.0001304
0.0002087
0.0001358
4.88e-05
3.014e-06
3.204e-07
7.926e-08
2.708e-07
4.043e-06
0.0001125
0.0004791
0.001317
0.001623
0.002464
0.00433
0.006706
0.007172
0.006071
0.004181
0.003408
0.002363
0.00129
0.0008449
0.001059
0.001292
0.001654
0.00204
0.0008467
0.0003925
0.0002308
0.0001995
9.378e-05
0.0001341
0.0001079
8.239e-05
3.368e-05
2.464e-05
1.35e-05
1.211e-05
1.567e-05
2.296e-05
2.543e-05
2.649e-05
8.19e-05
0.0003569
0.001738
0.00401
0.008117
0.02647
0.1583
0.7023
0.9118
0.9628
0.9841
0.9963
0.9993
0.9998
0.9999
1
1
1
1
1
1
1
1
1
1
1
1
1
1
1
1
1
1
1
1
1
1
1
1
1
1
1
1
1
1
1
1
1
1
1
1
1
1
1
1
1
1
1
1
1
1
1
1
1
1
1
1
1
1
1
1
1
1
1
1
1
1
1
1
1
1
1
1
1
1
1
1
1
1
1
1
1
1
1
1
1
1
1
1
1
1
1
1
1
2.3e-05
3.117e-05
7.787e-05
3.712e-05
2.974e-05
1.627e-05
2.437e-05
5.047e-05
0.0001197
5.828e-05
8.275e-05
5.232e-05
6.447e-05
8.534e-05
7.448e-05
1.245e-05
2.634e-06
1.163e-07
1.06e-08
3.038e-09
1.63e-08
5.925e-07
2.839e-05
0.000229
0.0009672
0.0009859
0.002017
0.003566
0.006048
0.006331
0.005723
0.004488
0.004754
0.004925
0.003821
0.003231
0.00406
0.004453
0.00569
0.00824
0.003949
0.002025
0.001182
0.001232
0.0006241
0.0006314
0.000531
0.000544
0.0004967
0.0005206
0.0003296
0.0001974
0.0001568
0.0001135
0.0001154
0.0001678
0.0004049
0.001528
0.008383
0.0241
0.1002
0.5901
0.8708
0.9666
0.9908
0.9973
0.9994
0.9999
1
1
1
1
1
1
1
1
1
1
1
1
1
1
1
1
1
1
1
1
1
1
1
1
1
1
1
1
1
1
1
1
1
1
1
1
1
1
1
1
1
1
1
1
1
1
1
1
1
1
1
1
1
1
1
1
1
1
1
1
1
1
1
1
1
1
1
1
1
1
1
1
1
1
1
1
1
1
1
1
1
1
1
1
1
1
1
1
1
1
1
1
5.084e-05
9.012e-05
0.0002755
0.0001622
8.016e-05
4.294e-05
8.326e-05
0.0001358
0.0002099
0.0001102
9.787e-05
8.416e-05
0.0001042
0.0001289
2.97e-05
2.123e-06
2.274e-07
1.165e-08
1.953e-09
1.007e-09
1.224e-08
5.252e-07
2.311e-05
0.0002357
0.001358
0.001221
0.002018
0.003438
0.00513
0.004774
0.004289
0.003188
0.004096
0.004837
0.005845
0.006372
0.009062
0.00886
0.01035
0.01317
0.007677
0.005369
0.003889
0.003795
0.001685
0.001161
0.0006078
0.0005533
0.0008123
0.001414
0.001281
0.0007314
0.0005764
0.0004342
0.0007858
0.00149
0.004574
0.01519
0.08484
0.3637
0.7362
0.9324
0.9892
0.9987
0.9999
1
1
1
1
1
1
1
1
1
1
1
1
1
1
1
1
1
1
1
1
1
1
1
1
1
1
1
1
1
1
1
1
1
1
1
1
1
1
1
1
1
1
1
1
1
1
1
1
1
1
1
1
1
1
1
1
1
1
1
1
1
1
1
1
1
1
1
1
1
1
1
1
1
1
1
1
1
1
1
1
1
1
1
1
1
1
1
1
1
1
1
1
1
1
1
4.278e-05
0.0001087
0.0004508
0.0002615
0.0001141
0.0001
0.000215
0.0006945
0.0007517
0.0003917
0.0001964
0.0001367
0.0001155
0.0001311
8.573e-06
4.768e-07
6.941e-08
1.037e-08
3.553e-09
3.625e-09
6.283e-08
2.294e-06
0.0001103
0.0009018
0.003365
0.00202
0.002612
0.003274
0.004532
0.004579
0.004456
0.003742
0.005535
0.006694
0.006595
0.006937
0.008127
0.005313
0.003743
0.0039
0.003558
0.004738
0.007426
0.009408
0.004684
0.002064
0.0005455
0.0003108
0.0003029
0.0005185
0.0006753
0.0007279
0.001329
0.002624
0.006853
0.02097
0.0926
0.3276
0.773
0.9268
0.9823
0.997
0.9997
1
1
1
1
1
1
1
1
1
1
1
1
1
1
1
1
1
1
1
1
1
1
1
1
1
1
1
1
1
1
1
1
1
1
1
1
1
1
1
1
1
1
1
1
1
1
1
1
1
1
1
1
1
1
1
1
1
1
1
1
1
1
1
1
1
1
1
1
1
1
1
1
1
1
1
1
1
1
1
1
1
1
1
1
1
1
1
1
1
1
1
1
1
1
1
1
1
9.894e-05
0.0002398
0.0007438
0.0004563
0.0001236
0.0001413
0.0004463
0.00196
0.001951
0.0008018
0.0003068
0.0001694
7.253e-05
6.516e-05
4.308e-06
3.289e-07
1.412e-07
9.635e-08
7.185e-08
1.354e-07
1.828e-06
3.466e-05
0.0007736
0.004106
0.01064
0.005755
0.006136
0.005386
0.005301
0.004416
0.004151
0.004418
0.007714
0.01011
0.008643
0.007936
0.0075
0.004415
0.002604
0.002043
0.001565
0.002128
0.00338
0.00466
0.003192
0.002112
0.0007537
0.0003638
0.0002332
0.0003297
0.0005443
0.001133
0.004028
0.01449
0.05335
0.2629
0.735
0.9084
0.9821
0.9965
0.9995
0.9999
1
1
1
1
1
1
1
1
1
1
1
1
1
1
1
1
1
1
1
1
1
1
1
1
1
1
1
1
1
1
1
1
1
1
1
1
1
1
1
1
1
1
1
1
1
1
1
1
1
1
1
1
1
1
1
1
1
1
1
1
1
1
1
1
1
1
1
1
1
1
1
1
1
1
1
1
1
1
1
1
1
1
1
1
1
1
1
1
1
1
1
1
1
1
1
1
1
1
0.0002209
0.0004777
0.001361
0.0008645
0.0002264
0.000303
0.0007171
0.002853
0.002742
0.001055
0.0002743
0.0001682
9.094e-05
6.754e-05
7.573e-06
1.39e-06
1.62e-06
3.533e-06
4.808e-06
9.733e-06
6.405e-05
0.0004068
0.002551
0.006985
0.01201
0.007305
0.008223
0.006856
0.00598
0.004233
0.004763
0.00699
0.0138
0.02016
0.01512
0.01094
0.006521
0.003343
0.001642
0.001098
0.000721
0.0009521
0.001356
0.001897
0.002282
0.002474
0.001445
0.0009608
0.0006515
0.0006617
0.0008939
0.004132
0.02697
0.1559
0.6638
0.9143
0.9849
0.9973
0.9996
0.9999
1
1
1
1
1
1
1
1
1
1
1
1
1
1
1
1
1
1
1
1
1
1
1
1
1
1
1
1
1
1
1
1
1
1
1
1
1
1
1
1
1
1
1
1
1
1
1
1
1
1
1
1
1
1
1
1
1
1
1
1
1
1
1
1
1
1
1
1
1
1
1
1
1
1
1
1
1
1
1
1
1
1
1
1
1
1
1
1
1
1
1
1
1
1
1
1
1
1
1
1
0.000662
0.001319
0.002926
0.001317
0.0003723
0.0004271
0.0005786
0.002432
0.003536
0.001817
0.000626
0.0006037
0.0003778
0.0002654
5.088e-05
1.38e-05
1.723e-05
5.052e-05
9.769e-05
0.0003141
0.001009
0.001714
0.002512
0.00262
0.002532
0.002744
0.006291
0.005413
0.004759
0.002987
0.002706
0.003313
0.007241
0.01312
0.0127
0.01038
0.006471
0.003771
0.00244
0.001748
0.001013
0.0008725
0.0008227
0.0008847
0.001408
0.002484
0.002928
0.003336
0.003323
0.003565
0.008829
0.05318
0.5425
0.8781
0.9745
0.9953
0.9994
0.9999
1
1
1
1
1
1
1
1
1
1
1
1
1
1
1
1
1
1
1
1
1
1
1
1
1
1
1
0.9999
0.9998
0.9997
0.9996
0.9995
0.9997
0.9998
0.9996
0.9996
0.9998
0.9999
1
1
1
1
1
1
1
1
1
1
1
1
1
1
1
1
1
1
1
1
1
1
1
1
1
1
1
1
1
1
1
1
1
1
1
1
1
1
1
1
1
1
1
1
1
1
1
1
1
1
1
1
1
1
1
1
1
1
1
1
1
1
1
1
0.001103
0.002071
0.004177
0.001698
0.0005133
0.0002852
0.0002141
0.000976
0.002653
0.002891
0.001461
0.002277
0.001524
0.001058
0.0003596
0.0001525
0.0001902
0.0005589
0.0008477
0.002074
0.003709
0.002971
0.001952
0.001261
0.001144
0.001699
0.006576
0.005733
0.00521
0.003414
0.002692
0.002312
0.004037
0.007876
0.01102
0.01283
0.0105
0.007522
0.005901
0.003977
0.001716
0.001011
0.000701
0.0006215
0.00104
0.002827
0.005351
0.0107
0.02412
0.05221
0.2225
0.8
0.9686
0.9949
0.9992
0.9998
1
1
1
1
1
1
1
1
1
1
1
1
1
1
1
1
1
1
1
1
1
1
1
1
0.9999
0.9998
0.9994
0.9973
0.9941
0.9909
0.9824
0.9764
0.9661
0.96
0.9672
0.9704
0.9656
0.9737
0.9829
0.988
0.9955
0.998
0.9988
0.9992
0.9997
0.9999
1
1
1
1
1
1
1
1
1
1
1
1
1
1
1
1
1
1
1
1
1
1
1
1
1
1
1
1
1
1
1
1
1
1
1
1
1
1
1
1
1
1
1
1
1
1
1
1
1
1
1
1
1
1
1
1
1
1
0.0016
0.002764
0.005625
0.001604
0.0004904
0.00012
6.677e-05
0.0003598
0.002633
0.006511
0.006232
0.009889
0.00623
0.004214
0.001971
0.001289
0.0009582
0.00203
0.002179
0.004226
0.005397
0.003192
0.001822
0.001009
0.0015
0.002979
0.01177
0.01046
0.008328
0.004999
0.003482
0.002023
0.002393
0.004265
0.008042
0.01434
0.01869
0.01411
0.0121
0.008194
0.003632
0.001995
0.001156
0.0009578
0.001765
0.005098
0.01276
0.03636
0.1471
0.5624
0.8943
0.9874
0.9987
0.9998
1
1
1
1
1
1
1
1
1
1
1
1
1
1
1
1
1
1
1
1
1
1
0.9999
0.9997
0.9989
0.9963
0.9925
0.9805
0.964
0.9293
0.8944
0.8056
0.6479
0.512
0.3633
0.2497
0.2255
0.2049
0.237
0.3004
0.3809
0.3685
0.6715
0.8557
0.9451
0.9746
0.9895
0.9939
0.9976
0.9994
0.9997
0.9998
1
1
1
1
1
1
1
1
1
1
1
1
1
1
1
1
1
1
1
1
1
1
1
1
1
1
1
1
1
1
1
1
1
1
1
1
1
1
1
1
1
1
1
1
1
1
1
1
1
1
1
1
1
1
0.001307
0.001973
0.004558
0.00178
0.001139
0.0002072
9.956e-05
0.0002419
0.001755
0.003391
0.005195
0.008629
0.008189
0.005872
0.0032
0.002879
0.002126
0.003483
0.004872
0.00648
0.006003
0.003679
0.002437
0.001581
0.00172
0.00259
0.008096
0.008704
0.009747
0.007928
0.005666
0.002484
0.002088
0.002592
0.005413
0.01179
0.01852
0.01287
0.01103
0.008289
0.004622
0.003012
0.002233
0.002872
0.006406
0.02201
0.07048
0.3156
0.7945
0.9571
0.9947
0.9995
0.9999
1
1
1
1
1
1
1
1
1
1
1
1
1
1
1
1
1
1
1
1
0.9999
0.9995
0.9985
0.9941
0.978
0.9371
0.8573
0.7125
0.3964
0.2079
0.1193
0.05928
0.02889
0.01553
0.0131
0.01398
0.01584
0.01351
0.01112
0.01578
0.02228
0.02709
0.02836
0.03813
0.05127
0.1018
0.2035
0.3994
0.6585
0.8594
0.961
0.9871
0.9934
0.9984
0.9994
0.9998
0.9999
1
1
1
1
1
1
1
1
1
1
1
1
1
1
1
1
1
1
1
1
1
1
1
1
1
1
1
1
1
1
1
1
1
1
1
1
1
1
1
1
1
1
1
1
1
1
0.9999
0.9995
0.9979
0.9935
0.001132
0.001305
0.003277
0.001969
0.002231
0.0003519
0.0002006
0.0002153
0.0009167
0.00173
0.003501
0.00541
0.007456
0.006764
0.003155
0.002612
0.002249
0.00404
0.008647
0.01064
0.008363
0.005594
0.004807
0.003976
0.003864
0.00377
0.006902
0.007404
0.009369
0.00976
0.007432
0.002847
0.002386
0.002387
0.004594
0.009422
0.01553
0.01098
0.009952
0.007734
0.005305
0.004872
0.005403
0.008747
0.02647
0.112
0.5565
0.8966
0.9864
0.9983
0.9998
1
1
1
1
1
1
1
1
1
1
1
1
1
1
1
1
1
1
1
1
0.9999
0.9995
0.9952
0.972
0.925
0.7959
0.5251
0.192
0.07882
0.02421
0.01327
0.009376
0.006147
0.002943
0.001807
0.0008879
0.0008966
0.001406
0.001908
0.001718
0.001567
0.002498
0.003989
0.00503
0.005774
0.005339
0.004968
0.007797
0.01296
0.01786
0.0324
0.07382
0.199
0.5021
0.7348
0.9186
0.9736
0.9892
0.9937
0.9984
0.9995
0.9999
1
1
1
1
1
1
1
1
1
1
1
1
1
1
1
1
1
1
1
1
1
1
1
1
1
1
1
1
1
1
1
1
1
1
1
1
1
1
1
1
0.9999
0.9994
0.9966
0.9868
0.9556
0.8991
0.8456
0.001318
0.0009965
0.002719
0.001697
0.002487
0.0004502
0.0002925
0.0001682
0.0004027
0.0008183
0.001951
0.003677
0.007633
0.008645
0.003202
0.002245
0.002533
0.005742
0.006919
0.004805
0.002448
0.002266
0.004628
0.009679
0.009489
0.005399
0.004963
0.005564
0.00799
0.009296
0.008504
0.004649
0.004274
0.003167
0.003631
0.004082
0.004782
0.00371
0.005269
0.006034
0.006148
0.008232
0.01426
0.03614
0.1998
0.714
0.9476
0.9943
0.9995
0.9999
1
1
1
1
1
1
1
1
1
1
1
1
1
1
1
1
1
1
0.9999
0.9998
0.9987
0.9942
0.966
0.8476
0.5869
0.2347
0.07013
0.01922
0.006475
0.003542
0.001477
0.001113
0.000906
0.0007728
0.0003922
0.0003984
0.0002599
0.0002978
0.0004098
0.0005841
0.0005553
0.0005181
0.00078
0.001288
0.00143
0.001478
0.0012
0.0009822
0.001368
0.001776
0.002042
0.003388
0.006676
0.01507
0.03363
0.08068
0.18
0.4393
0.7576
0.9116
0.9904
0.9987
0.9997
0.9999
1
1
1
1
1
1
1
1
1
1
1
1
1
1
1
1
1
1
1
1
1
1
1
1
1
1
1
1
1
1
1
1
1
1
0.9999
0.9997
0.9991
0.9966
0.9908
0.9703
0.9108
0.7646
0.6265
0.4917
0.381
0.1163
0.001414
0.0008739
0.002929
0.001737
0.002233
0.0004765
0.0002891
0.0001742
0.0004615
0.0008261
0.001204
0.002029
0.005381
0.008033
0.002672
0.001758
0.00166
0.003536
0.003661
0.003093
0.001153
0.001146
0.002581
0.0102
0.012
0.007063
0.005573
0.005644
0.008142
0.009141
0.009358
0.007635
0.008376
0.006327
0.004891
0.003008
0.002208
0.001823
0.003658
0.006939
0.01311
0.02558
0.08686
0.3894
0.8549
0.9742
0.9975
0.9998
1
1
1
1
1
1
1
1
1
1
1
1
1
1
1
1
1
1
1
0.9997
0.9977
0.9889
0.9382
0.8119
0.3516
0.08118
0.0282
0.01347
0.005318
0.00201
0.0008721
0.0005313
0.0003341
0.0003679
0.0003489
0.000456
0.0003503
0.0004891
0.0003814
0.0005002
0.0006264
0.0008921
0.0007635
0.0006992
0.001077
0.001292
0.001287
0.001487
0.001153
0.0008432
0.0008751
0.0008309
0.0006832
0.0008464
0.001406
0.003052
0.006257
0.01108
0.02064
0.05237
0.2455
0.7436
0.9711
0.9963
0.9993
0.9998
1
1
1
1
1
1
1
1
1
1
1
1
1
1
1
1
1
1
1
1
1
1
1
1
1
1
1
1
1
0.9999
0.9996
0.9988
0.9973
0.9936
0.9821
0.9458
0.8654
0.7032
0.5398
0.266
0.1211
0.05178
0.02758
0.01501