/*--------------------------------*- C++ -*----------------------------------*\
| =========                 |                                                 |
| \\      /  F ield         | OpenFOAM: The Open Source CFD Toolbox           |
|  \\    /   O peration     | Version:  5.x                                   |
|   \\  /    A nd           | Web:      www.OpenFOAM.org                      |
|    \\/     M anipulation  |                                                 |
\*---------------------------------------------------------------------------*/
FoamFile
{
    version     2.0;
    format      ascii;
    class       volScalarField;
    location    "90";
    object      gamma;
}
// * * * * * * * * * * * * * * * * * * * * * * * * * * * * * * * * * * * * * //

dimensions      [0 0 0 0 0 0 0];

internalField   nonuniform List<scalar> 
86400
(
5.865e-05
7.587e-05
0.0001144
0.0002105
0.0004061
0.0006874
0.0009367
0.001316
0.001983
0.002806
0.004274
0.006255
0.009509
0.01299
0.01619
0.01642
0.01619
0.01178
0.009655
0.009059
0.009471
0.009888
0.01141
0.01062
0.01025
0.01252
0.01344
0.01407
0.01342
0.01302
0.01258
0.01326
0.01408
0.0148
0.01565
0.0174
0.01715
0.01576
0.01279
0.01133
0.01005
0.01018
0.009637
0.008656
0.008567
0.009342
0.01109
0.01233
0.01319
0.01269
0.01271
0.01296
0.0132
0.0132
0.01306
0.01357
0.01435
0.0148
0.01488
0.0146
0.01346
0.01332
0.01263
0.01278
0.01426
0.01663
0.01885
0.01996
0.01792
0.01662
0.01736
0.01897
0.02111
0.01958
0.01802
0.01623
0.01451
0.01472
0.01681
0.01916
0.02339
0.02597
0.02587
0.02497
0.0246
0.02305
0.02326
0.02271
0.02318
0.02373
0.02289
0.025
0.02817
0.03464
0.03821
0.04011
0.03652
0.03493
0.03397
0.03295
0.03181
0.03247
0.02972
0.0256
0.01879
0.01753
0.01922
0.02704
0.0323
0.03602
0.03317
0.03168
0.0289
0.0246
0.01891
0.01577
0.01456
0.0142
0.01334
0.01223
0.01138
0.01072
0.01089
0.01081
0.01068
0.01064
0.01047
0.01016
0.009432
0.008221
0.006692
0.006187
0.00615
0.006582
0.007217
0.008174
0.009015
0.0101
0.007171
0.003815
0.002284
0.002434
0.003408
0.005116
0.004934
0.003665
0.00304
0.003533
0.004433
0.005092
0.005425
0.006004
0.007802
0.008731
0.009584
0.01061
0.01025
0.01066
0.1403
0.959
7.933e-05
9.294e-05
0.0001305
0.0002087
0.0003747
0.000618
0.0008499
0.00119
0.001667
0.001964
0.002865
0.004482
0.007732
0.01239
0.01647
0.01583
0.01377
0.01118
0.01115
0.01304
0.01671
0.02128
0.02505
0.02404
0.02238
0.02172
0.01919
0.01625
0.01378
0.01207
0.0115
0.01311
0.0155
0.01824
0.02093
0.02373
0.02417
0.02364
0.0213
0.01968
0.01748
0.0169
0.0161
0.01492
0.01455
0.0155
0.01673
0.01792
0.019
0.01913
0.02
0.02123
0.02237
0.02308
0.02282
0.02125
0.01943
0.01783
0.01648
0.01588
0.01528
0.0155
0.01482
0.01519
0.01705
0.02135
0.02442
0.02614
0.0242
0.02334
0.02457
0.02519
0.02415
0.02067
0.01812
0.01767
0.02018
0.02448
0.02885
0.03125
0.03512
0.03778
0.04059
0.04231
0.04374
0.04257
0.04349
0.04266
0.04432
0.04686
0.04759
0.05132
0.05431
0.05602
0.05505
0.05299
0.04782
0.04378
0.03975
0.03816
0.03816
0.04192
0.04452
0.03965
0.02818
0.02402
0.02466
0.03011
0.03797
0.04368
0.04044
0.04026
0.0414
0.04128
0.03847
0.03584
0.03437
0.03424
0.03256
0.02918
0.02694
0.025
0.02476
0.02468
0.02448
0.02446
0.02391
0.02296
0.02072
0.01765
0.01406
0.01296
0.01289
0.01497
0.01727
0.01916
0.0199
0.02031
0.01528
0.009597
0.007787
0.008096
0.009205
0.01169
0.01245
0.01084
0.01033
0.01232
0.01558
0.0162
0.01501
0.01443
0.01648
0.0204
0.03039
0.05029
0.08082
0.1668
0.4772
0.9161
0.0001294
0.0001431
0.0001776
0.0002406
0.000393
0.0006044
0.0008004
0.001098
0.001388
0.001607
0.002335
0.004002
0.00718
0.01221
0.01601
0.01576
0.0148
0.01426
0.01484
0.01876
0.02311
0.02999
0.03496
0.03327
0.03292
0.03506
0.03276
0.02807
0.02337
0.01915
0.01841
0.02229
0.02646
0.02925
0.0297
0.0294
0.02785
0.02723
0.02521
0.02372
0.02151
0.02108
0.02014
0.02002
0.02068
0.02285
0.02465
0.0265
0.02855
0.02656
0.02361
0.02056
0.01825
0.01719
0.01779
0.01699
0.01631
0.0155
0.0153
0.01542
0.01593
0.01685
0.01689
0.01866
0.0205
0.02307
0.0253
0.02684
0.02558
0.02499
0.0254
0.02345
0.02116
0.01992
0.02062
0.02642
0.03625
0.04629
0.05282
0.0564
0.05991
0.0626
0.06666
0.07058
0.07605
0.07533
0.07568
0.07317
0.06653
0.05856
0.04904
0.04194
0.04054
0.04405
0.04682
0.04883
0.04845
0.04313
0.03895
0.03836
0.0394
0.04352
0.04743
0.0415
0.03064
0.02756
0.03059
0.03874
0.05169
0.0569
0.05489
0.0602
0.06679
0.06997
0.06658
0.0633
0.05854
0.05653
0.05174
0.04566
0.04042
0.03842
0.03787
0.0379
0.03771
0.03779
0.03705
0.03564
0.03187
0.0275
0.02276
0.02119
0.02097
0.02394
0.02884
0.03325
0.03598
0.03759
0.0325
0.02585
0.02383
0.02454
0.02695
0.03117
0.0332
0.02983
0.02774
0.02962
0.03442
0.0342
0.03376
0.03285
0.04172
0.06045
0.1123
0.255
0.5239
0.7627
0.8744
0.9648
0.0002632
0.0002677
0.0002889
0.0003304
0.0004546
0.0005867
0.0006833
0.0008531
0.001044
0.001257
0.001907
0.002243
0.002808
0.003933
0.005616
0.006435
0.008282
0.007303
0.005436
0.005372
0.005943
0.006937
0.009468
0.01112
0.0131
0.01729
0.02044
0.02064
0.02014
0.01864
0.01872
0.0247
0.03155
0.0364
0.03587
0.03335
0.03047
0.03069
0.02997
0.03008
0.02965
0.03168
0.03469
0.03893
0.03703
0.03308
0.02704
0.02276
0.02128
0.01903
0.01562
0.01332
0.01254
0.01193
0.01262
0.01169
0.0105
0.01027
0.0121
0.01442
0.01689
0.01938
0.02088
0.02281
0.02432
0.02567
0.02591
0.02586
0.02433
0.02711
0.03084
0.0294
0.02897
0.03067
0.03156
0.04388
0.06168
0.07421
0.07548
0.07919
0.07668
0.07522
0.07737
0.07788
0.07757
0.07626
0.07393
0.07096
0.06691
0.06467
0.06055
0.05332
0.05186
0.05388
0.05465
0.05501
0.05627
0.04886
0.04431
0.04472
0.0481
0.05513
0.06397
0.05862
0.04415
0.0348
0.03305
0.03854
0.04627
0.04945
0.04753
0.04981
0.05165
0.06246
0.07005
0.08091
0.08551
0.09188
0.08436
0.07585
0.06563
0.06407
0.06313
0.06347
0.06351
0.06399
0.06326
0.06221
0.05819
0.05301
0.04641
0.0448
0.04608
0.04914
0.05319
0.05404
0.05241
0.04914
0.05092
0.05247
0.05661
0.05819
0.06049
0.06342
0.07022
0.07312
0.07609
0.08171
0.09605
0.09808
0.107
0.1163
0.158
0.2616
0.5183
0.742
0.8803
0.9595
0.9871
0.9972
0.0006176
0.0005859
0.0005756
0.0005913
0.0006501
0.0006866
0.0006442
0.0007208
0.0008692
0.0009976
0.001389
0.001038
0.0006403
0.0007046
0.001296
0.002218
0.005348
0.004144
0.002233
0.001568
0.001777
0.002165
0.003313
0.003483
0.004476
0.007841
0.01506
0.02447
0.03267
0.02728
0.02059
0.02009
0.01953
0.01925
0.01896
0.01741
0.01496
0.01704
0.02151
0.02803
0.02834
0.02428
0.01751
0.01423
0.01085
0.008799
0.007711
0.008143
0.01027
0.01218
0.01115
0.008922
0.009438
0.0102
0.01136
0.01018
0.008468
0.008744
0.01159
0.01654
0.02269
0.0289
0.0346
0.03768
0.03567
0.02966
0.02637
0.02297
0.01954
0.01975
0.02241
0.0218
0.02618
0.03494
0.0423
0.05365
0.06931
0.07339
0.0717
0.08014
0.07846
0.07569
0.07688
0.07806
0.07917
0.08262
0.08225
0.07875
0.07594
0.07583
0.06901
0.06276
0.0636
0.06652
0.07399
0.07524
0.07615
0.06542
0.06102
0.05832
0.05296
0.05015
0.05566
0.05554
0.05098
0.0482
0.04694
0.05068
0.05326
0.05086
0.04318
0.0407
0.03866
0.04932
0.05233
0.05686
0.05478
0.05621
0.04798
0.04687
0.04344
0.04425
0.04359
0.04379
0.04393
0.04436
0.0444
0.04558
0.04615
0.04639
0.04563
0.04548
0.04609
0.04496
0.04519
0.04382
0.04368
0.04517
0.05212
0.05879
0.06832
0.07536
0.08158
0.09081
0.1069
0.1162
0.1243
0.1304
0.1587
0.184
0.252
0.3699
0.5339
0.6813
0.8154
0.908
0.9639
0.9898
0.9973
0.9994
0.001204
0.001136
0.001113
0.00113
0.001015
0.0008464
0.0007012
0.0006968
0.0008398
0.0009756
0.001302
0.0006364
0.0002307
0.000162
0.0004507
0.000936
0.002993
0.00246
0.001241
0.0007752
0.001098
0.001426
0.00221
0.001703
0.001647
0.002204
0.003661
0.007551
0.01387
0.01297
0.009171
0.007471
0.006571
0.006441
0.007731
0.007941
0.005948
0.005738
0.006728
0.006676
0.004713
0.003244
0.001609
0.0009404
0.0006259
0.0003787
0.0002283
0.0002578
0.0004372
0.0007664
0.001004
0.001256
0.001864
0.003441
0.004974
0.004541
0.003158
0.002972
0.004168
0.007824
0.01356
0.01971
0.02269
0.02527
0.02455
0.02007
0.02126
0.02036
0.01778
0.01807
0.02256
0.02328
0.03141
0.04378
0.05043
0.05676
0.06494
0.07056
0.07911
0.1014
0.114
0.1213
0.1239
0.1279
0.1304
0.1378
0.1423
0.1417
0.1469
0.1575
0.1682
0.154
0.151
0.148
0.1458
0.1441
0.1374
0.1197
0.1173
0.1124
0.09958
0.08637
0.08357
0.07903
0.07665
0.07043
0.05588
0.05461
0.05175
0.04517
0.0309
0.02329
0.018
0.02239
0.02581
0.03043
0.03022
0.02926
0.02539
0.02538
0.0236
0.02383
0.02362
0.02386
0.02422
0.02473
0.0255
0.0278
0.03062
0.03389
0.03651
0.03934
0.04326
0.04452
0.04723
0.04587
0.0489
0.0532
0.06374
0.07247
0.08421
0.09503
0.1069
0.1241
0.1535
0.1821
0.2198
0.272
0.37
0.4863
0.6192
0.7234
0.817
0.8843
0.9378
0.9711
0.9894
0.9968
0.9991
0.9998
0.002039
0.001885
0.001822
0.001691
0.00149
0.001216
0.001031
0.001025
0.001321
0.001373
0.001398
0.0005588
0.0001312
8.556e-05
0.0002189
0.0006535
0.003145
0.004726
0.002844
0.002066
0.003388
0.003893
0.005072
0.002997
0.002033
0.002061
0.002883
0.004875
0.009325
0.009293
0.006921
0.004411
0.003672
0.003942
0.005286
0.005633
0.003579
0.002803
0.003211
0.002625
0.001207
0.0004913
0.0001293
4.684e-05
2.746e-05
1.141e-05
6.478e-06
9.459e-06
2.737e-05
7.727e-05
0.0001534
0.000169
0.000184
0.000261
0.000276
0.0003189
0.0003998
0.0007088
0.001706
0.004442
0.008216
0.01357
0.01771
0.02418
0.02659
0.02057
0.02217
0.02132
0.01987
0.01938
0.02653
0.02849
0.04664
0.07075
0.08705
0.0956
0.1077
0.119
0.1351
0.1746
0.212
0.2482
0.2823
0.3169
0.3489
0.3732
0.3922
0.3999
0.4393
0.4827
0.4876
0.4546
0.4261
0.4006
0.3886
0.3755
0.3248
0.2655
0.2482
0.2232
0.1909
0.1491
0.1324
0.1344
0.1452
0.1371
0.1107
0.09941
0.08392
0.06235
0.04101
0.02633
0.01831
0.02059
0.02392
0.0254
0.0236
0.02129
0.01848
0.01886
0.01811
0.01831
0.01859
0.01914
0.01998
0.02095
0.02214
0.0247
0.02833
0.03305
0.03768
0.04306
0.05012
0.05425
0.06134
0.07163
0.08564
0.1026
0.1317
0.1564
0.1844
0.2191
0.262
0.3216
0.4182
0.507
0.5906
0.6607
0.7268
0.7875
0.8461
0.8989
0.9432
0.9688
0.985
0.9931
0.9972
0.9989
0.9996
0.9998
0.004029
0.003342
0.002955
0.002626
0.002299
0.00187
0.00176
0.001862
0.001864
0.001172
0.0009119
0.0003368
8.282e-05
7.941e-05
0.0002467
0.0009282
0.005066
0.0112
0.009943
0.01102
0.0146
0.01537
0.01701
0.01034
0.006244
0.003572
0.002595
0.002911
0.004681
0.005379
0.004976
0.004215
0.003704
0.004497
0.006629
0.00782
0.005119
0.004016
0.003951
0.001685
0.0004329
8.662e-05
1.671e-05
5.3e-06
4.76e-06
2.22e-06
1.299e-06
1.588e-06
2.585e-06
6.637e-06
1.493e-05
1.709e-05
2.209e-05
3.579e-05
3.671e-05
4.088e-05
7.116e-05
0.000199
0.0007073
0.00266
0.005975
0.01101
0.01665
0.02827
0.03344
0.02773
0.02828
0.02787
0.02801
0.03239
0.04783
0.05772
0.08825
0.1294
0.1634
0.1859
0.21
0.2628
0.322
0.4136
0.4709
0.5183
0.5632
0.6111
0.6536
0.6929
0.7527
0.8082
0.8502
0.8732
0.8705
0.8465
0.8147
0.7964
0.7878
0.7788
0.7427
0.6871
0.6285
0.5665
0.5104
0.4587
0.4078
0.3494
0.3122
0.2559
0.1957
0.1676
0.1445
0.1107
0.0764
0.04275
0.03014
0.03171
0.03687
0.03787
0.03822
0.03306
0.02934
0.03041
0.03021
0.03019
0.03131
0.03358
0.03677
0.04048
0.04478
0.05146
0.06006
0.0703
0.0814
0.09489
0.1131
0.1307
0.1565
0.1933
0.2407
0.2971
0.3809
0.4529
0.5236
0.5897
0.6456
0.6908
0.7399
0.7926
0.8438
0.8843
0.9164
0.9385
0.9583
0.9754
0.9877
0.9938
0.9972
0.9986
0.9993
0.9996
0.9998
0.9999
0.007899
0.005664
0.004346
0.003525
0.002994
0.002505
0.002878
0.00229
0.001451
0.0006826
0.0003567
0.0001764
0.0001
0.0001703
0.0006027
0.001857
0.00398
0.00563
0.004716
0.005108
0.009174
0.01838
0.0315
0.03324
0.0277
0.01388
0.006573
0.004177
0.004502
0.005373
0.006523
0.005895
0.004566
0.005092
0.006496
0.007598
0.005634
0.004773
0.005217
0.001239
0.0001752
2.002e-05
3.095e-06
1.288e-06
2.848e-06
2.331e-06
1.67e-06
1.615e-06
1.604e-06
1.991e-06
4.713e-06
7.11e-06
1.288e-05
1.645e-05
1.264e-05
9.175e-06
1.654e-05
6.544e-05
0.0003587
0.002103
0.006374
0.01246
0.01949
0.03294
0.04028
0.03627
0.03936
0.04761
0.05176
0.06662
0.09258
0.1122
0.1559
0.2255
0.3206
0.4562
0.5483
0.6386
0.6902
0.7235
0.75
0.778
0.8098
0.8425
0.8726
0.8973
0.9286
0.9544
0.9666
0.9699
0.964
0.9485
0.9316
0.9287
0.9393
0.9452
0.9385
0.9144
0.8722
0.805
0.7653
0.7279
0.6875
0.6247
0.5681
0.5129
0.4756
0.4312
0.3936
0.3095
0.2333
0.1522
0.1218
0.09887
0.09175
0.08059
0.07687
0.06707
0.06339
0.06178
0.0606
0.06189
0.06675
0.07513
0.08669
0.1009
0.1186
0.1418
0.1696
0.2019
0.2436
0.2998
0.3786
0.471
0.5613
0.6374
0.6957
0.7356
0.765
0.7945
0.8265
0.8576
0.884
0.9034
0.9216
0.9394
0.9559
0.9681
0.9776
0.9836
0.99
0.9948
0.9976
0.9989
0.9994
0.9996
0.9998
0.9999
0.9999
0.9999
0.01206
0.008181
0.006391
0.005165
0.004282
0.003362
0.002734
0.001315
0.0006047
0.0003041
0.0001629
0.0001587
0.0001976
0.0005013
0.001767
0.003485
0.003039
0.001629
0.0008
0.0006598
0.001377
0.004536
0.01512
0.0321
0.03777
0.0201
0.008302
0.004766
0.004294
0.00649
0.009443
0.008347
0.005294
0.00454
0.004163
0.005449
0.006753
0.007917
0.007447
0.00124
0.0001256
1.11e-05
2.071e-06
1.366e-06
5.093e-06
7.417e-06
5.145e-06
2.844e-06
1.057e-06
6.582e-07
1.712e-06
4.402e-06
1.46e-05
2.438e-05
1.226e-05
5.25e-06
8.411e-06
3.77e-05
0.0003739
0.003178
0.009541
0.01787
0.02332
0.03704
0.0472
0.05329
0.06455
0.09237
0.1213
0.1947
0.2857
0.3915
0.4908
0.593
0.663
0.7284
0.774
0.8153
0.8394
0.8549
0.8685
0.8828
0.9077
0.9331
0.955
0.971
0.9841
0.9915
0.9946
0.9952
0.9937
0.9902
0.9865
0.9847
0.9865
0.9864
0.9833
0.9734
0.9557
0.9243
0.9067
0.8909
0.8705
0.8303
0.7784
0.7278
0.6994
0.6613
0.6364
0.5998
0.5542
0.4853
0.4303
0.3147
0.2763
0.2545
0.2746
0.2812
0.2951
0.2786
0.277
0.2931
0.3288
0.3835
0.4439
0.5016
0.5566
0.6052
0.6455
0.674
0.7035
0.735
0.769
0.8031
0.8362
0.8617
0.8826
0.8982
0.9114
0.9256
0.9403
0.9538
0.9643
0.9713
0.9777
0.9833
0.9882
0.9917
0.9942
0.9956
0.9975
0.9988
0.9995
0.9997
0.9998
0.9998
0.9999
0.9999
0.9999
0.9999
0.01235
0.008318
0.007086
0.006461
0.005475
0.003872
0.001753
0.0005848
0.0002253
0.0001402
0.0001154
0.0001981
0.0004708
0.001597
0.003273
0.004141
0.001589
0.0003148
9.682e-05
8.054e-05
0.000246
0.001191
0.00746
0.02301
0.03558
0.02324
0.01459
0.009387
0.007781
0.01025
0.01151
0.007032
0.002929
0.001467
0.001226
0.001613
0.003043
0.005511
0.006136
0.001542
0.0002036
2.077e-05
4.889e-06
4.048e-06
1.186e-05
1.723e-05
1.341e-05
6.111e-06
1.767e-06
9.368e-07
2.273e-06
8.081e-06
4.489e-05
9.316e-05
4.852e-05
1.913e-05
2.969e-05
0.0001334
0.001298
0.01109
0.03058
0.04471
0.0531
0.07653
0.1031
0.1379
0.184
0.2607
0.3586
0.4938
0.5869
0.6746
0.7356
0.7838
0.8152
0.8439
0.8685
0.8911
0.9116
0.9289
0.9436
0.9565
0.971
0.9819
0.9898
0.9944
0.9973
0.9986
0.9991
0.9991
0.9989
0.9984
0.9977
0.9968
0.9965
0.9956
0.9943
0.99
0.9834
0.9693
0.9593
0.9493
0.9399
0.9253
0.9069
0.8886
0.8761
0.8556
0.8353
0.8104
0.7993
0.78
0.7645
0.7135
0.668
0.6369
0.6533
0.6625
0.6771
0.6693
0.6722
0.6856
0.7079
0.7359
0.7667
0.795
0.8211
0.8435
0.8622
0.8745
0.8881
0.9021
0.9181
0.9326
0.9457
0.9548
0.962
0.9672
0.9717
0.9769
0.9823
0.9869
0.9903
0.9925
0.9942
0.9956
0.9969
0.9977
0.9983
0.9985
0.9991
0.9995
0.9998
0.9999
0.9999
0.9999
0.9999
0.9999
0.9999
0.9998
0.01099
0.008305
0.007454
0.006063
0.003668
0.002098
0.0007672
0.0003019
0.0001568
0.0002126
0.0002457
0.0006844
0.001894
0.003808
0.00463
0.004104
0.00105
0.0001622
4.105e-05
2.791e-05
9.499e-05
0.000845
0.008298
0.02442
0.03372
0.02099
0.01559
0.01179
0.01167
0.01474
0.01353
0.006663
0.002009
0.0008573
0.0005505
0.0007028
0.001504
0.002765
0.002999
0.001057
0.0001916
3.749e-05
1.292e-05
1.154e-05
1.865e-05
1.888e-05
1.345e-05
4.746e-06
1.165e-06
6.683e-07
1.65e-06
1.045e-05
0.0001177
0.0004935
0.0004393
0.0002231
0.0002767
0.0009193
0.005324
0.02803
0.05999
0.07888
0.0924
0.127
0.1804
0.2913
0.4417
0.5703
0.66
0.7275
0.7759
0.816
0.8491
0.8706
0.8854
0.9004
0.9174
0.9391
0.961
0.9738
0.9814
0.986
0.991
0.9951
0.9979
0.9991
0.9996
0.9998
0.9998
0.9999
0.9998
0.9997
0.9995
0.9991
0.9985
0.9975
0.9963
0.9946
0.9922
0.9874
0.9835
0.9795
0.9755
0.97
0.9633
0.9565
0.9506
0.9406
0.9301
0.9195
0.9097
0.8992
0.8917
0.871
0.8535
0.8426
0.845
0.8517
0.8611
0.8615
0.8656
0.8729
0.8829
0.8949
0.9082
0.9215
0.934
0.9446
0.9533
0.9587
0.9635
0.9679
0.9732
0.9782
0.9828
0.9863
0.9891
0.991
0.9926
0.9941
0.9954
0.9965
0.9974
0.9979
0.9983
0.9986
0.9989
0.9992
0.9993
0.9994
0.9995
0.9997
0.9998
0.9998
0.9999
0.9999
0.9999
0.9999
0.9998
0.9997
0.009337
0.008156
0.007002
0.004863
0.002406
0.001233
0.0004537
0.0002463
0.00024
0.0003651
0.0006191
0.001777
0.003484
0.004467
0.00489
0.003411
0.001166
0.0002046
5.201e-05
2.831e-05
8.344e-05
0.0006512
0.006392
0.01896
0.03067
0.02475
0.02462
0.02303
0.02398
0.02591
0.02041
0.009944
0.003783
0.001678
0.0009408
0.0009729
0.001796
0.00274
0.002724
0.001391
0.000496
0.0001486
7.764e-05
5.884e-05
4.59e-05
4.006e-05
2.404e-05
1.365e-05
5.537e-06
4.885e-06
1.021e-05
4.319e-05
0.0002944
0.001056
0.001414
0.00137
0.002593
0.006792
0.02775
0.0857
0.1352
0.1676
0.2093
0.3003
0.4405
0.581
0.6766
0.7488
0.7982
0.8347
0.8619
0.884
0.8997
0.9087
0.9219
0.9372
0.9533
0.9731
0.9859
0.9913
0.9947
0.9964
0.9979
0.9989
0.9995
0.9998
0.9999
0.9999
1
1
0.9999
0.9999
0.9997
0.9993
0.9986
0.9975
0.9965
0.9956
0.9946
0.9929
0.9916
0.9902
0.9888
0.9869
0.9846
0.9819
0.9791
0.975
0.9706
0.9659
0.961
0.9558
0.9511
0.9431
0.9373
0.9346
0.9359
0.9394
0.9435
0.9449
0.9471
0.9498
0.9551
0.9615
0.968
0.9739
0.9787
0.9823
0.9852
0.987
0.9888
0.9905
0.9923
0.9939
0.9952
0.9961
0.9969
0.9974
0.9978
0.9982
0.9985
0.9988
0.999
0.9992
0.9993
0.9994
0.9995
0.9996
0.9996
0.9996
0.9996
0.9996
0.9997
0.9997
0.9998
0.9998
0.9998
0.9998
0.9996
0.9993
0.009118
0.009024
0.007978
0.004332
0.001919
0.0009463
0.0005228
0.0004583
0.0009255
0.001235
0.001895
0.003088
0.003833
0.003333
0.003389
0.002925
0.002036
0.000494
0.000148
6.382e-05
0.0001393
0.0007436
0.005296
0.01302
0.01914
0.01902
0.02394
0.02926
0.03307
0.03448
0.0282
0.01816
0.01011
0.005752
0.003172
0.002689
0.003403
0.004295
0.004409
0.003518
0.001972
0.0009358
0.0006399
0.0004887
0.0002722
0.0002406
0.0001748
0.0001233
6.16e-05
5.21e-05
6.219e-05
0.0001521
0.0005355
0.0016
0.002932
0.005686
0.01721
0.05054
0.1262
0.2267
0.2804
0.363
0.4947
0.6204
0.7041
0.7652
0.8044
0.8407
0.8671
0.886
0.8987
0.9127
0.9215
0.9279
0.9416
0.9576
0.9718
0.9863
0.9933
0.9959
0.9973
0.9981
0.9988
0.9993
0.9997
0.9999
0.9999
1
1
1
0.9999
0.9999
0.9997
0.9991
0.9982
0.9969
0.996
0.9955
0.9953
0.9949
0.9945
0.9941
0.9936
0.9929
0.992
0.991
0.9897
0.9884
0.9869
0.985
0.9829
0.9804
0.9779
0.976
0.9747
0.974
0.9739
0.9742
0.975
0.9767
0.9789
0.9813
0.9843
0.987
0.9892
0.9912
0.9928
0.9941
0.9952
0.9959
0.9965
0.9971
0.9976
0.998
0.9983
0.9986
0.9988
0.999
0.9992
0.9993
0.9994
0.9994
0.9995
0.9995
0.9996
0.9996
0.9996
0.9997
0.9997
0.9997
0.9996
0.9996
0.9996
0.9997
0.9997
0.9998
0.9998
0.9997
0.9994
0.9989
0.01033
0.01078
0.01012
0.003938
0.001815
0.0009042
0.00089
0.001518
0.003969
0.003504
0.003925
0.00244
0.002448
0.001653
0.001937
0.001415
0.0007214
0.0001288
3.227e-05
1.429e-05
3.167e-05
0.0001737
0.001355
0.003593
0.007252
0.009136
0.01243
0.01849
0.02406
0.02525
0.02253
0.01824
0.01539
0.01239
0.00889
0.00708
0.007931
0.008962
0.01011
0.01113
0.007124
0.004605
0.003299
0.002942
0.001815
0.002042
0.001726
0.001443
0.0008769
0.0008379
0.0007649
0.001037
0.002361
0.00633
0.0153
0.03549
0.08832
0.1713
0.2636
0.3576
0.4581
0.5604
0.6635
0.7466
0.7983
0.8341
0.861
0.8865
0.9027
0.9127
0.9168
0.9237
0.9293
0.9365
0.9487
0.9639
0.9773
0.989
0.9943
0.9963
0.9973
0.9984
0.9991
0.9995
0.9997
0.9999
0.9999
0.9999
1
0.9999
0.9998
0.9996
0.9992
0.9984
0.9975
0.9966
0.9963
0.9961
0.9959
0.9956
0.9954
0.9952
0.9951
0.995
0.9947
0.9944
0.9939
0.9932
0.9925
0.9915
0.9904
0.9892
0.9879
0.9868
0.9861
0.9857
0.9856
0.9857
0.9866
0.9884
0.9904
0.9922
0.9937
0.9948
0.9958
0.9966
0.9972
0.9977
0.9981
0.9984
0.9987
0.9989
0.9991
0.9992
0.9993
0.9994
0.9994
0.9995
0.9995
0.9996
0.9996
0.9996
0.9996
0.9996
0.9997
0.9997
0.9997
0.9997
0.9997
0.9996
0.9996
0.9996
0.9996
0.9997
0.9997
0.9998
0.9998
0.9997
0.9995
0.9993
0.01039
0.01207
0.01374
0.004946
0.002003
0.001053
0.001521
0.004073
0.01089
0.007653
0.005859
0.002388
0.001392
0.001163
0.0009789
0.0003278
0.0001222
1.812e-05
4.217e-06
2.091e-06
6.076e-06
5.59e-05
0.0005956
0.002262
0.005916
0.006738
0.01083
0.01607
0.02199
0.02272
0.0215
0.0198
0.02031
0.0213
0.01895
0.01743
0.01911
0.02025
0.02241
0.02657
0.01853
0.01279
0.009353
0.009559
0.006914
0.007221
0.006765
0.006836
0.006498
0.007511
0.007915
0.01021
0.01783
0.03343
0.06106
0.1146
0.2014
0.3296
0.4388
0.5227
0.5978
0.6736
0.7382
0.7878
0.8241
0.856
0.8845
0.908
0.9199
0.9246
0.9236
0.9268
0.9312
0.9386
0.9475
0.961
0.9734
0.9853
0.9906
0.9927
0.9945
0.9969
0.9983
0.999
0.9995
0.9997
0.9998
0.9998
0.9998
0.9996
0.9991
0.9984
0.9974
0.996
0.9954
0.9948
0.9947
0.9944
0.9941
0.9939
0.9937
0.9937
0.9939
0.994
0.994
0.994
0.9938
0.9934
0.9929
0.9924
0.9918
0.9914
0.9912
0.9912
0.9913
0.9913
0.9911
0.9914
0.9924
0.994
0.9954
0.9965
0.9972
0.9977
0.998
0.9984
0.9987
0.999
0.9991
0.9992
0.9993
0.9994
0.9995
0.9995
0.9995
0.9996
0.9996
0.9996
0.9996
0.9996
0.9996
0.9997
0.9997
0.9997
0.9997
0.9997
0.9997
0.9997
0.9996
0.9996
0.9996
0.9997
0.9997
0.9998
0.9998
0.9998
0.9998
0.9998
0.9997
0.9996
0.008367
0.01115
0.01612
0.007142
0.002839
0.001828
0.003641
0.009493
0.01855
0.01152
0.006053
0.002761
0.00164
0.001329
0.0005202
0.0001059
2.676e-05
4.45e-06
1.541e-06
1.119e-06
5.287e-06
5.346e-05
0.0005361
0.002301
0.007152
0.007466
0.01072
0.01535
0.01954
0.01885
0.01837
0.01697
0.02028
0.02402
0.02698
0.02821
0.03264
0.03232
0.03419
0.0374
0.02863
0.02337
0.01994
0.02012
0.01454
0.01348
0.01136
0.0126
0.01724
0.02665
0.03377
0.0404
0.05876
0.09259
0.1653
0.2684
0.3998
0.5072
0.5776
0.642
0.7053
0.7608
0.8074
0.8434
0.8709
0.8953
0.9156
0.9298
0.9346
0.9324
0.9241
0.9203
0.9221
0.9283
0.9351
0.945
0.9563
0.968
0.9752
0.979
0.9847
0.9922
0.9959
0.9975
0.9982
0.9987
0.9988
0.9988
0.9983
0.9967
0.9939
0.9917
0.9897
0.9884
0.9885
0.9884
0.9881
0.9877
0.9873
0.9871
0.9873
0.9877
0.9885
0.9893
0.9899
0.9903
0.9903
0.9902
0.99
0.9898
0.9894
0.9896
0.9905
0.9917
0.9927
0.9935
0.9939
0.9944
0.9955
0.9966
0.9975
0.998
0.9983
0.9986
0.9988
0.9991
0.9992
0.9994
0.9994
0.9995
0.9995
0.9996
0.9996
0.9996
0.9996
0.9996
0.9996
0.9996
0.9997
0.9997
0.9997
0.9997
0.9997
0.9997
0.9997
0.9997
0.9997
0.9997
0.9996
0.9996
0.9997
0.9998
0.9998
0.9999
0.9999
0.9999
0.9999
0.9999
0.9999
0.9997
0.005866
0.00939
0.01597
0.007844
0.003081
0.002706
0.006122
0.02085
0.03014
0.01701
0.006498
0.002766
0.001515
0.001241
0.000237
4.19e-05
1.3e-05
4.167e-06
2.261e-06
2.455e-06
1.442e-05
0.000134
0.001428
0.005688
0.01428
0.01163
0.01379
0.01568
0.01804
0.01809
0.0187
0.01911
0.02596
0.03113
0.03195
0.03236
0.03387
0.02784
0.02355
0.02381
0.02297
0.02561
0.0324
0.03738
0.0292
0.02208
0.01512
0.01516
0.0213
0.03718
0.05691
0.08121
0.1279
0.2041
0.3168
0.4458
0.5386
0.6078
0.6596
0.7124
0.7624
0.8084
0.8454
0.8734
0.8914
0.908
0.922
0.931
0.9293
0.9222
0.9088
0.8994
0.899
0.9051
0.9091
0.9155
0.926
0.9322
0.9383
0.9466
0.9574
0.9735
0.9834
0.9876
0.9903
0.9918
0.9903
0.9884
0.9832
0.9726
0.9624
0.9612
0.9617
0.9629
0.9639
0.9641
0.9641
0.9641
0.9642
0.9657
0.9683
0.9712
0.9745
0.9772
0.9791
0.9808
0.9819
0.9822
0.9823
0.9823
0.9816
0.9821
0.9845
0.9874
0.9899
0.9918
0.9937
0.9954
0.9969
0.998
0.9985
0.9987
0.9988
0.9989
0.9991
0.9993
0.9994
0.9995
0.9995
0.9996
0.9996
0.9996
0.9996
0.9996
0.9996
0.9996
0.9997
0.9997
0.9997
0.9997
0.9997
0.9997
0.9997
0.9997
0.9997
0.9997
0.9997
0.9997
0.9997
0.9997
0.9998
0.9998
0.9999
0.9999
0.9999
0.9999
0.9999
0.9999
0.9999
0.9998
0.006235
0.01018
0.01622
0.008714
0.002839
0.002825
0.007265
0.0237
0.02772
0.01372
0.005328
0.002408
0.00107
0.0008147
0.00016
3.488e-05
2.097e-05
1.658e-05
1.424e-05
2.188e-05
0.0001136
0.000727
0.005071
0.01622
0.03256
0.02414
0.02463
0.0219
0.02008
0.01822
0.01871
0.0219
0.03357
0.04288
0.04146
0.03924
0.03724
0.02884
0.02231
0.02008
0.01816
0.02047
0.02621
0.03446
0.03419
0.03277
0.02774
0.02921
0.03706
0.06525
0.1101
0.1697
0.25
0.3574
0.4599
0.5448
0.6043
0.6577
0.7099
0.7592
0.8042
0.8469
0.8752
0.8936
0.9023
0.9099
0.9157
0.9176
0.9112
0.8979
0.8794
0.863
0.8614
0.8666
0.8728
0.8785
0.8854
0.8847
0.8849
0.8895
0.9043
0.9258
0.9426
0.9488
0.9529
0.9543
0.9477
0.9381
0.9182
0.8881
0.8645
0.865
0.8694
0.8764
0.8834
0.8888
0.8931
0.8965
0.9006
0.9085
0.9192
0.9302
0.9402
0.9479
0.9533
0.9586
0.962
0.9635
0.9645
0.9656
0.9651
0.9664
0.9707
0.976
0.9816
0.9865
0.9915
0.9948
0.997
0.9981
0.9987
0.9988
0.999
0.9992
0.9993
0.9994
0.9995
0.9996
0.9996
0.9996
0.9996
0.9996
0.9996
0.9997
0.9997
0.9997
0.9997
0.9997
0.9997
0.9997
0.9997
0.9997
0.9997
0.9997
0.9997
0.9996
0.9996
0.9997
0.9997
0.9998
0.9999
0.9999
0.9999
0.9999
0.9999
0.9999
0.9999
0.9999
0.9998
0.9997
0.008284
0.01331
0.02037
0.01188
0.003778
0.003771
0.007202
0.01869
0.02001
0.01057
0.003941
0.002237
0.001291
0.000936
0.000252
9.346e-05
0.0001019
0.0001579
0.0001953
0.0003103
0.001085
0.003776
0.01285
0.02774
0.0425
0.03232
0.03164
0.02623
0.0219
0.01841
0.02087
0.02856
0.04704
0.06524
0.06014
0.05162
0.03989
0.02841
0.01993
0.01641
0.01385
0.01611
0.02191
0.03394
0.04814
0.06068
0.06172
0.07047
0.08375
0.1238
0.181
0.2818
0.3991
0.5064
0.5804
0.6508
0.7073
0.7591
0.7933
0.82
0.8447
0.8679
0.8826
0.893
0.8939
0.8932
0.8926
0.8889
0.8783
0.8637
0.8425
0.8226
0.8138
0.8091
0.8169
0.829
0.836
0.8326
0.8247
0.811
0.8106
0.8033
0.7951
0.7871
0.7567
0.721
0.6887
0.6449
0.6088
0.608
0.5999
0.6117
0.6222
0.6381
0.6564
0.6764
0.697
0.7224
0.747
0.7789
0.8143
0.8459
0.8687
0.885
0.8965
0.909
0.9192
0.925
0.9289
0.9311
0.9316
0.934
0.9419
0.9508
0.9615
0.9735
0.9856
0.9926
0.9961
0.9977
0.9983
0.9987
0.9991
0.9994
0.9995
0.9995
0.9995
0.9996
0.9996
0.9996
0.9996
0.9996
0.9997
0.9997
0.9997
0.9997
0.9997
0.9997
0.9997
0.9997
0.9997
0.9997
0.9997
0.9996
0.9996
0.9996
0.9996
0.9997
0.9998
0.9999
0.9999
0.9999
0.9999
0.9999
0.9998
0.9998
0.9998
0.9997
0.9996
0.9992
0.01254
0.01916
0.02752
0.0143
0.004874
0.004189
0.005265
0.0122
0.01541
0.01023
0.005137
0.004483
0.003233
0.002493
0.0009362
0.0004379
0.00051
0.0009437
0.00147
0.003001
0.006823
0.01169
0.01763
0.02099
0.02189
0.02072
0.02798
0.02369
0.01996
0.01561
0.01542
0.01898
0.03333
0.05306
0.05798
0.05524
0.04462
0.0338
0.02647
0.0225
0.01934
0.02199
0.02946
0.04595
0.07603
0.1138
0.1306
0.1566
0.1783
0.2314
0.3159
0.4477
0.5338
0.6098
0.6653
0.7226
0.7699
0.8127
0.8384
0.855
0.8664
0.8746
0.8758
0.8754
0.866
0.8545
0.8499
0.847
0.84
0.8317
0.8135
0.7879
0.7631
0.7446
0.7533
0.7692
0.7763
0.764
0.7382
0.6934
0.6575
0.6054
0.552
0.4986
0.4215
0.3762
0.3551
0.3427
0.3208
0.3391
0.3349
0.3482
0.3531
0.3724
0.3928
0.4171
0.4546
0.5041
0.5466
0.5984
0.6539
0.6998
0.734
0.7632
0.7904
0.8211
0.8469
0.8609
0.8712
0.8776
0.8822
0.8871
0.8992
0.9113
0.9281
0.9503
0.9743
0.9875
0.9935
0.9964
0.9976
0.9984
0.9991
0.9994
0.9995
0.9996
0.9996
0.9996
0.9996
0.9996
0.9996
0.9997
0.9997
0.9997
0.9997
0.9997
0.9997
0.9997
0.9996
0.9996
0.9996
0.9996
0.9996
0.9996
0.9996
0.9997
0.9998
0.9998
0.9999
0.9999
0.9999
0.9999
0.9999
0.9998
0.9998
0.9996
0.9995
0.9993
0.9988
0.9976
0.01617
0.02384
0.03294
0.01635
0.005937
0.003366
0.002832
0.006719
0.01229
0.01284
0.008544
0.01055
0.008164
0.00649
0.003434
0.002085
0.002428
0.004666
0.006546
0.01141
0.01809
0.01964
0.01808
0.01536
0.01445
0.01589
0.02796
0.02479
0.02189
0.01724
0.01539
0.01588
0.02512
0.04295
0.059
0.06926
0.06328
0.05272
0.04457
0.03932
0.03562
0.04116
0.05376
0.07688
0.1165
0.167
0.1984
0.2462
0.3041
0.3844
0.464
0.5478
0.6137
0.6782
0.7281
0.7771
0.8162
0.8502
0.8685
0.8777
0.8743
0.8665
0.8491
0.8293
0.8067
0.7848
0.7755
0.7773
0.7843
0.7903
0.7813
0.7539
0.7143
0.677
0.6727
0.6835
0.68
0.6473
0.5897
0.5026
0.4288
0.3478
0.2864
0.2537
0.2057
0.1882
0.172
0.1742
0.1596
0.1577
0.1484
0.151
0.1588
0.1778
0.1852
0.186
0.1981
0.2228
0.2562
0.2999
0.3655
0.431
0.4869
0.5419
0.6009
0.6498
0.6912
0.7177
0.7412
0.762
0.7892
0.8142
0.8412
0.864
0.8913
0.9219
0.956
0.9783
0.9897
0.9948
0.9969
0.998
0.9989
0.9993
0.9995
0.9996
0.9996
0.9995
0.9995
0.9996
0.9996
0.9996
0.9996
0.9996
0.9996
0.9995
0.9995
0.9995
0.9996
0.9996
0.9997
0.9997
0.9997
0.9997
0.9998
0.9998
0.9999
0.9999
0.9999
0.9999
0.9999
0.9998
0.9997
0.9996
0.9993
0.9989
0.9981
0.997
0.9953
0.9916
0.01643
0.02335
0.03374
0.01472
0.005831
0.002099
0.001423
0.003674
0.01197
0.02067
0.02033
0.02591
0.01994
0.01601
0.01014
0.00781
0.006827
0.01125
0.01358
0.02076
0.02546
0.02203
0.01729
0.013
0.01496
0.0195
0.0356
0.03385
0.02959
0.02178
0.01766
0.01536
0.01996
0.03304
0.05356
0.07859
0.08881
0.07944
0.07262
0.069
0.07062
0.08731
0.1119
0.1425
0.1835
0.2317
0.2707
0.3217
0.3882
0.4584
0.5246
0.5946
0.6567
0.7116
0.759
0.8019
0.8357
0.8645
0.8802
0.8881
0.8828
0.8661
0.8349
0.8044
0.7732
0.7533
0.7451
0.7462
0.7531
0.7594
0.7473
0.7094
0.6503
0.5912
0.5667
0.555
0.5217
0.4513
0.3558
0.2588
0.2136
0.1811
0.161
0.1472
0.1125
0.08917
0.07621
0.07421
0.0737
0.0789
0.07594
0.07437
0.0812
0.09293
0.1036
0.1063
0.1147
0.1259
0.1431
0.1554
0.1701
0.1865
0.2099
0.2509
0.3219
0.3811
0.4373
0.4888
0.5334
0.5801
0.6443
0.7109
0.7715
0.8268
0.8755
0.9105
0.9424
0.9703
0.9865
0.9936
0.9966
0.9977
0.9984
0.999
0.9994
0.9995
0.9995
0.9994
0.9994
0.9994
0.9994
0.9994
0.9995
0.9995
0.9996
0.9997
0.9997
0.9997
0.9997
0.9998
0.9998
0.9998
0.9998
0.9998
0.9998
0.9999
0.9999
0.9999
0.9999
0.9998
0.9997
0.9993
0.9989
0.9982
0.9973
0.9956
0.9924
0.988
0.9822
0.969
0.01243
0.01768
0.02873
0.01566
0.009732
0.002931
0.001685
0.002797
0.009398
0.0147
0.01943
0.02575
0.02486
0.02066
0.01488
0.014
0.0121
0.01733
0.02329
0.02878
0.0278
0.02301
0.01835
0.01436
0.01488
0.01765
0.0297
0.03178
0.03391
0.02948
0.02379
0.01801
0.01937
0.02662
0.04365
0.07027
0.08874
0.08177
0.08216
0.08941
0.1075
0.1466
0.1883
0.2243
0.2602
0.3034
0.3524
0.4055
0.4548
0.5056
0.5553
0.6097
0.6646
0.7135
0.7595
0.8002
0.832
0.8598
0.8777
0.8878
0.8809
0.8592
0.8192
0.7789
0.7437
0.7278
0.7167
0.7083
0.7072
0.7015
0.6837
0.6352
0.5639
0.4948
0.4568
0.4192
0.354
0.2724
0.2098
0.1642
0.1339
0.1136
0.09314
0.07787
0.05558
0.04028
0.03205
0.03173
0.03295
0.03742
0.03512
0.03304
0.03872
0.04907
0.06055
0.0676
0.07416
0.0797