/*--------------------------------*- C++ -*----------------------------------*\
| =========                 |                                                 |
| \\      /  F ield         | OpenFOAM: The Open Source CFD Toolbox           |
|  \\    /   O peration     | Version:  5.x                                   |
|   \\  /    A nd           | Web:      www.OpenFOAM.org                      |
|    \\/     M anipulation  |                                                 |
\*---------------------------------------------------------------------------*/
FoamFile
{
    version     2.0;
    format      ascii;
    class       volScalarField;
    location    "20";
    object      gamma;
}
// * * * * * * * * * * * * * * * * * * * * * * * * * * * * * * * * * * * * * //

dimensions      [0 0 0 0 0 0 0];

internalField   nonuniform List<scalar> 
80000
(
1
1
1
1
1
1
1
0.99999
0.99995
0.99989
0.9998
0.9997
0.9996
0.9995
0.9994
0.99931
0.99922
0.99912
0.99901
0.99889
0.99874
0.99857
0.99838
0.99817
0.99795
0.99771
0.99745
0.99719
0.99692
0.99665
0.99636
0.99607
0.99577
0.99547
0.99516
0.99484
0.99452
0.99419
0.99386
0.99352
0.99318
0.99283
0.99248
0.99213
0.99178
0.99142
0.99107
0.99071
0.99036
0.99001
0.98966
0.98932
0.98898
0.98865
0.98832
0.988
0.98769
0.98739
0.9871
0.98682
0.98656
0.9863
0.98607
0.98585
0.98564
0.98546
0.98529
0.98513
0.985
0.98488
0.98478
0.98469
0.98462
0.98457
0.98454
0.98452
0.98453
0.98455
0.98459
0.98464
0.9847
0.98477
0.98486
0.98499
0.98515
0.98536
0.98561
0.98589
0.98621
0.98656
0.98701
0.9876
0.98837
0.98853
0.98843
0.98834
0.98724
0.98592
0.98513
0.98279
0.97967
0.97651
0.97375
0.97158
0.97181
0.97159
0.97117
0.97073
0.97034
0.97002
0.96975
0.96951
0.96929
0.96909
0.96892
0.96877
0.96863
0.96851
0.96841
0.96832
0.96824
0.96818
0.96813
0.96808
0.96805
0.96803
0.96801
0.96801
0.96801
0.96802
0.96803
0.96805
0.96808
0.96811
0.96814
0.96818
0.96823
0.96828
0.96833
0.96839
0.96844
0.96851
0.96857
0.96864
0.9687
0.96877
0.96884
0.96891
0.96898
0.96906
0.96913
0.9692
0.96927
0.96934
0.96941
0.96948
0.96955
0.96961
0.96967
0.96973
0.96979
0.96984
0.9699
0.96994
0.96999
0.97003
0.97007
0.9701
0.97013
0.97015
0.97017
0.97018
0.97019
0.97019
0.97019
0.97018
0.97017
0.97014
0.97011
0.97007
0.97003
0.96998
0.96993
0.96986
0.96979
0.96971
0.96961
0.96951
0.9694
0.96928
0.96915
0.96901
0.96886
0.9687
0.96852
0.96834
0.96814
0.96793
0.9677
0.96746
0.96721
0.96694
0.96666
0.96636
0.96604
0.96571
0.96535
0.96498
0.96459
0.96418
0.96374
0.96329
0.9628
0.9623
0.96177
0.9612
0.96061
0.95999
0.95933
0.95864
0.95791
0.95714
0.95633
0.95548
0.95459
0.95364
0.95264
0.95158
0.95045
0.94926
0.948
0.94665
0.94522
0.94369
0.94206
0.94031
0.93843
0.93642
0.93424
0.93189
0.92935
0.92658
0.92357
0.92027
0.91665
0.91267
0.90827
0.90339
0.89795
0.89186
0.88502
0.87732
0.8686
0.85869
0.84735
0.83435
0.81953
0.80308
0.78496
0.76538
0.74377
0.71943
0.6919
0.66049
0.62417
0.58187
0.53313
0.47619
0.41111
0.34461
0.28912
0.24464
0.20968
0.18214
0.15974
0.14132
0.12976
0.12922
0.14269
0.1661
0.19591
0.21549
0.22112
0.208
0.17136
0.13315
0.10057
0.082099
0.073923
0.074067
0.073259
0.071942
0.07024
0.068313
0.066338
0.064701
0.06344
0.062378
0.061454
0.060403
0.059259
0.058052
0.056868
0.055823
0.054924
0.054121
0.05341
0.05268
0.051846
0.051018
0.050342
0.050122
0.050927
0.053586
0.054008
0.04254
0.030194
0.020086
0.015244
0.013686
0.014758
0.014971
0.014808
0.014582
0.014398
0.014252
0.014118
0.013989
0.013861
0.013736
0.013615
0.013496
0.01338
0.013266
0.013155
0.013047
0.01294
0.012835
0.012733
0.012633
0.012534
0.012438
0.012343
0.012251
0.012161
0.012073
0.011987
0.011904
0.011823
0.011744
0.011668
0.011595
0.011524
0.011456
0.01139
0.011328
0.011269
0.011212
0.011159
0.011109
0.011062
0.011018
0.010977
0.010939
0.010905
0.010873
0.010845
0.010819
0.010796
0.010775
0.010758
0.010742
0.010729
0.010718
0.010709
0.010701
0.010695
0.01069
0.010687
0.010685
0.010683
0.010682
0.010682
0.010682
0.010682
0.010682
0.010683
0.010683
0.010684
0.01068
0.010672
0.010674
0.010718
0.010827
0.010849
0.010213
0.0096305
0.01008
0.010678
0.012024
1
1
1
1
1
1
1
0.99999
0.99997
0.99993
0.99988
0.99982
0.99976
0.99969
0.99962
0.99954
0.99945
0.99937
0.99927
0.99916
0.99903
0.99888
0.99872
0.99853
0.99833
0.99811
0.99788
0.99764
0.9974
0.99715
0.99689
0.99662
0.99635
0.99608
0.99579
0.9955
0.99521
0.99491
0.99461
0.9943
0.99398
0.99367
0.99335
0.99303
0.9927
0.99238
0.99206
0.99173
0.99141
0.99109
0.99077
0.99046
0.99015
0.98984
0.98954
0.98925
0.98897
0.98869
0.98843
0.98817
0.98793
0.9877
0.98748
0.98728
0.98709
0.98692
0.98677
0.98663
0.98651
0.9864
0.9863
0.98622
0.98616
0.98611
0.98608
0.98606
0.98606
0.98609
0.98612
0.98618
0.98626
0.98636
0.9865
0.98668
0.98692
0.98721
0.98755
0.98792
0.98831
0.98873
0.98868
0.98842
0.98821
0.98731
0.98635
0.98586
0.98438
0.98265
0.98129
0.97925
0.97698
0.97577
0.97436
0.9732
0.97338
0.97321
0.97287
0.97251
0.9722
0.97193
0.9717
0.9715
0.97131
0.97114
0.97098
0.97085
0.97072
0.97062
0.97052
0.97044
0.97037
0.97031
0.97026
0.97022
0.97019
0.97016
0.97015
0.97014
0.97013
0.97014
0.97015
0.97016
0.97018
0.97021
0.97024
0.97027
0.97031
0.97035
0.9704
0.97044
0.97049
0.97055
0.9706
0.97066
0.97071
0.97077
0.97083
0.9709
0.97096
0.97102
0.97108
0.97114
0.9712
0.97126
0.97132
0.97138
0.97144
0.97149
0.97154
0.97159
0.97164
0.97168
0.97173
0.97177
0.9718
0.97183
0.97186
0.97189
0.97191
0.97192
0.97193
0.97194
0.97194
0.97194
0.97193
0.97191
0.97189
0.97186
0.97183
0.97179
0.97174
0.97169
0.97163
0.97156
0.97149
0.9714
0.97131
0.9712
0.97109
0.97097
0.97085
0.97071
0.97056
0.9704
0.97022
0.97004
0.96985
0.96964
0.96942
0.96919
0.96894
0.96868
0.9684
0.96811
0.9678
0.96748
0.96713
0.96677
0.96639
0.96599
0.96557
0.96513
0.96466
0.96417
0.96366
0.96311
0.96254
0.96193
0.96129
0.96062
0.95991
0.95917
0.95838
0.95755
0.95668
0.95575
0.95477
0.95373
0.95264
0.95147
0.95023
0.94891
0.94751
0.94601
0.94441
0.94269
0.94085
0.93887
0.93674
0.93443
0.93193
0.92922
0.92626
0.92303
0.91949
0.91559
0.91129
0.90652
0.90122
0.8953
0.88866
0.88121
0.87279
0.86324
0.85235
0.83988
0.82569
0.80981
0.79222
0.77312
0.75212
0.72867
0.70238
0.67265
0.63854
0.5991
0.55381
0.50138
0.4414
0.37445
0.31491
0.26651
0.22776
0.19707
0.17201
0.15332
0.14376
0.14589
0.16075
0.18492
0.2064
0.21811
0.21325
0.19053
0.15283
0.11778
0.090719
0.076635
0.070857
0.070749
0.069806
0.068361
0.066543
0.064629
0.062817
0.061334
0.060145
0.059122
0.058048
0.056917
0.055752
0.054574
0.053452
0.052484
0.051629
0.050872
0.050111
0.049325
0.048455
0.047634
0.047028
0.047044
0.04825
0.0483
0.044074
0.032988
0.02305
0.01598
0.013115
0.012452
0.013304
0.013436
0.01327
0.013065
0.012898
0.012765
0.012643
0.012523
0.012407
0.012293
0.012183
0.012075
0.011969
0.011866
0.011765
0.011667
0.01157
0.011475
0.011382
0.011291
0.011202
0.011114
0.011029
0.010945
0.010863
0.010783
0.010705
0.010629
0.010556
0.010484
0.010415
0.010348
0.010283
0.010221
0.010161
0.010104
0.01005
0.009998
0.0099491
0.0099029
0.0098595
0.0098188
0.009781
0.009746
0.0097137
0.0096841
0.0096572
0.0096328
0.009611
0.0095915
0.0095742
0.0095592
0.0095461
0.009535
0.0095255
0.0095177
0.0095112
0.0095061
0.009502
0.0094989
0.0094967
0.0094951
0.009494
0.0094934
0.009493
0.009493
0.0094932
0.0094936
0.0094935
0.0094905
0.0094829
0.0094844
0.0095256
0.0096271
0.0096469
0.0090537
0.0085168
0.0089476
0.0094838
0.010678
0.99992
0.99995
0.99997
1
1
1
1
0.99999
0.99998
0.99995
0.9999
0.99985
0.99979
0.99972
0.99964
0.99956
0.99946
0.99937
0.99927
0.99915
0.99903
0.99889
0.99873
0.99855
0.99836
0.99815
0.99792
0.99769
0.99746
0.99721
0.99696
0.99671
0.99645
0.99618
0.99591
0.99563
0.99534
0.99505
0.99476
0.99446
0.99416
0.99386
0.99355
0.99324
0.99293
0.99262
0.99231
0.992
0.99169
0.99138
0.99108
0.99077
0.99048
0.99019
0.9899
0.98962
0.98935
0.98909
0.98883
0.98859
0.98836
0.98814
0.98793
0.98774
0.98756
0.9874
0.98725
0.98712
0.987
0.9869
0.98681
0.98673
0.98667
0.98662
0.98659
0.98658
0.98659
0.98663
0.98668
0.98677
0.9869
0.98707
0.9873
0.98758
0.98793
0.98835
0.98837
0.98813
0.98779
0.98755
0.98684
0.98627
0.98562
0.98416
0.98254
0.98124
0.97941
0.97758
0.97696
0.97568
0.97434
0.97406
0.97352
0.97307
0.97323
0.9731
0.97284
0.97256
0.97232
0.97211
0.97192
0.97174
0.97158
0.97143
0.9713
0.97117
0.97106
0.97096
0.97088
0.9708
0.97073
0.97067
0.97062
0.97058
0.97055
0.97052
0.9705
0.97049
0.97048
0.97048
0.97048
0.97049
0.97051
0.97052
0.97055
0.97057
0.9706
0.97064
0.97067
0.97071
0.97075
0.9708
0.97084
0.97089
0.97094
0.97099
0.97104
0.97109
0.97114
0.97119
0.97124
0.97129
0.97134
0.97139
0.97144
0.97149
0.97153
0.97158
0.97162
0.97166
0.97169
0.97173
0.97176
0.97179
0.97181
0.97184
0.97185
0.97187
0.97188
0.97188
0.97188
0.97188
0.97187
0.97186
0.97184
0.97181
0.97179
0.97175
0.97171
0.97166
0.97161
0.97155
0.97148
0.9714
0.97132
0.97122
0.97112
0.97101
0.97089
0.97077
0.97063
0.97048
0.97033
0.97016
0.96998
0.96979
0.96959
0.96938
0.96916
0.96892
0.96866
0.9684
0.96812
0.96782
0.96751
0.96718
0.96683
0.96646
0.96608
0.96567
0.96525
0.9648
0.96433
0.96383
0.9633
0.96275
0.96217
0.96156
0.96091
0.96024
0.95952
0.95877
0.95797
0.95713
0.95624
0.9553
0.9543
0.95325
0.95213
0.95095
0.94969
0.94835
0.94692
0.9454
0.94377
0.94203
0.94016
0.93816
0.936
0.93366
0.93114
0.92841
0.92544
0.9222
0.91865
0.91477
0.91049
0.90578
0.90057
0.89477
0.88831
0.88109
0.87299
0.86385
0.8535
0.84175
0.82843
0.81352
0.79695
0.77887
0.7591
0.73706
0.71256
0.68519
0.65435
0.61929
0.57947
0.5339
0.48182
0.4226
0.35968
0.30683
0.26371
0.22928
0.20134
0.18164
0.17259
0.17569
0.19064
0.2082
0.22107
0.22033
0.20227
0.1716
0.13501
0.10368
0.084427
0.07438
0.070462
0.069939
0.06873
0.067
0.065061
0.06316
0.061458
0.060056
0.058893
0.057736
0.056558
0.055359
0.054161
0.053017
0.051953
0.05103
0.050187
0.049407
0.04859
0.04774
0.046824
0.046002
0.045528
0.045891
0.047658
0.045029
0.037577
0.026779
0.018021
0.013436
0.012079
0.012044
0.012677
0.012721
0.012546
0.012355
0.0122
0.012074
0.011957
0.011844
0.011733
0.011625
0.011521
0.011419
0.011319
0.011222
0.011127
0.011034
0.010943
0.010853
0.010766
0.01068
0.010596
0.010513
0.010433
0.010354
0.010277
0.010201
0.010128
0.010056
0.0099861
0.0099183
0.0098526
0.0097891
0.0097277
0.0096686
0.0096119
0.0095575
0.0095055
0.0094561
0.0094092
0.0093648
0.009323
0.0092838
0.0092472
0.0092131
0.0091816
0.0091526
0.009126
0.0091018
0.00908
0.0090603
0.0090428
0.0090273
0.0090137
0.0090019
0.0089917
0.008983
0.0089757
0.0089696
0.0089646
0.0089606
0.0089575
0.008955
0.0089532
0.0089518
0.0089509
0.0089503
0.00895
0.0089501
0.0089498
0.0089467
0.0089393
0.0089408
0.0089807
0.0090787
0.0090981
0.0085261
0.0080067
0.0084273
0.0089476
0.01008
0.99974
0.99984
0.99991
1
0.99999
0.99999
0.99998
0.99997
0.99994
0.99991
0.99986
0.99981
0.99975
0.99967
0.99959
0.99949
0.99938
0.99927
0.99915
0.99902
0.99889
0.99874
0.99858
0.9984
0.99821
0.998
0.99778
0.99755
0.99732
0.99708
0.99683
0.99658
0.99632
0.99606
0.99579
0.99552
0.99524
0.99495
0.99466
0.99437
0.99408
0.99378
0.99348
0.99318
0.99287
0.99257
0.99226
0.99196
0.99166
0.99136
0.99106
0.99077
0.99048
0.9902
0.98992
0.98965
0.98939
0.98913
0.98889
0.98865
0.98843
0.98822
0.98802
0.98783
0.98766
0.9875
0.98735
0.98723
0.98711
0.98702
0.98693
0.98687
0.98682
0.9868
0.98679
0.98681
0.98685
0.98692
0.98703
0.9872
0.98744
0.98774
0.98811
0.98811
0.98792
0.98768
0.98681
0.98575
0.98489
0.98422
0.98285
0.98183
0.98015
0.97785
0.97551
0.97434
0.97241
0.97048
0.96998
0.96958
0.9697
0.97076
0.97148
0.97186
0.97198
0.97191
0.97177
0.9716
0.97145
0.97131
0.97118
0.97105
0.97092
0.9708
0.97069
0.97059
0.97049
0.97041
0.97033
0.97026
0.97019
0.97013
0.97008
0.97004
0.97
0.96997
0.96995
0.96993
0.96991
0.96991
0.9699
0.9699
0.96991
0.96991
0.96992
0.96994
0.96996
0.96998
0.97
0.97003
0.97006
0.97009
0.97012
0.97015
0.97019
0.97022
0.97026
0.97029
0.97033
0.97037
0.9704
0.97044
0.97047
0.97051
0.97054
0.97057
0.9706
0.97063
0.97065
0.97068
0.9707
0.97071
0.97073
0.97074
0.97075
0.97076
0.97076
0.97075
0.97075
0.97074
0.97072
0.9707
0.97068
0.97065
0.97061
0.97057
0.97053
0.97048
0.97042
0.97036
0.97029
0.97021
0.97013
0.97003
0.96993
0.96982
0.96971
0.96958
0.96945
0.9693
0.96915
0.96899
0.96882
0.96864
0.96844
0.96824
0.96802
0.96779
0.96755
0.9673
0.96703
0.96674
0.96645
0.96613
0.9658
0.96545
0.96509
0.9647
0.9643
0.96388
0.96343
0.96296
0.96246
0.96194
0.96139
0.96081
0.96021
0.95957
0.95889
0.95818
0.95744
0.95665
0.95581
0.95493
0.954
0.95301
0.95196
0.95086
0.94969
0.94844
0.94712
0.94572
0.94422
0.94263
0.94093
0.93911
0.93717
0.93509
0.93285
0.93044
0.92785
0.92505
0.92202
0.91873
0.91516
0.91126
0.90702
0.90237
0.89728
0.89167
0.88549
0.87864
0.87105
0.8626
0.85317
0.84259
0.83074
0.81753
0.80289
0.78689
0.76944
0.75023
0.7292
0.70606
0.67983
0.65025
0.617
0.57982
0.53842
0.49293
0.44231
0.38878
0.34117
0.30033
0.26582
0.24143
0.22988
0.2322
0.24044
0.24719
0.24255
0.22115
0.18742
0.15005
0.1159
0.093302
0.080298
0.074077
0.071733
0.070463
0.068655
0.066505
0.064377
0.06245
0.060833
0.059513
0.058266
0.056968
0.055663
0.054365
0.053144
0.052044
0.051032
0.050143
0.049308
0.048444
0.047549
0.046609
0.045629
0.044808
0.044548
0.045426
0.045593
0.038974
0.028973
0.019253
0.013807
0.011416
0.011382
0.011872
0.012221
0.012155
0.011968
0.011791
0.011648
0.011528
0.011415
0.011306
0.0112
0.011097
0.010997
0.0109
0.010805
0.010713
0.010622
0.010534
0.010448
0.010363
0.01028
0.010198
0.010119
0.010041
0.0099641
0.0098891
0.0098158
0.0097442
0.0096742
0.009606
0.0095395
0.0094749
0.0094122
0.0093515
0.0092927
0.009236
0.0091815
0.0091291
0.009079
0.0090312
0.0089856
0.0089424
0.0089016
0.0088632
0.0088271
0.0087934
0.008762
0.0087329
0.0087061
0.0086815
0.008659
0.0086386
0.0086202
0.0086037
0.0085889
0.0085759
0.0085644
0.0085543
0.0085456
0.0085382
0.0085318
0.0085265
0.008522
0.0085184
0.0085154
0.008513
0.0085112
0.0085098
0.0085089
0.0085085
0.0085078
0.0085046
0.0084972
0.0084987
0.0085376
0.0086328
0.0086515
0.0080958
0.0075921
0.0080067
0.0085168
0.0096305
0.99936
0.9996
0.99975
0.99991
0.99989
0.99987
0.99985
0.99983
0.99978
0.99972
0.99963
0.99954
0.99943
0.99932
0.99918
0.99903
0.99888
0.99871
0.99855
0.99838
0.99821
0.99803
0.99784
0.99764
0.99742
0.99719
0.99695
0.9967
0.99644
0.99618
0.99591
0.99564
0.99536
0.99507
0.99478
0.99448
0.99417
0.99386
0.99355
0.99324
0.99292
0.99259
0.99227
0.99194
0.99161
0.99129
0.99096
0.99063
0.99031
0.98999
0.98967
0.98936
0.98905
0.98875
0.98846
0.98817
0.98789
0.98763
0.98737
0.98712
0.98688
0.98666
0.98645
0.98625
0.98606
0.98589
0.98574
0.98561
0.9855
0.98541
0.98535
0.98532
0.98532
0.98536
0.98543
0.98552
0.98564
0.9858
0.98604
0.98636
0.98628
0.986
0.98568
0.98468
0.98355
0.98275
0.98096
0.9788
0.97674
0.97532
0.97315
0.97184
0.97011
0.96757
0.96507
0.9641
0.96331
0.96322
0.96444
0.96545
0.96625
0.96685
0.96725
0.96749
0.96758
0.96758
0.96754
0.96749
0.96742
0.96735
0.96727
0.96719
0.9671
0.96701
0.96692
0.96683
0.96675
0.96667
0.9666
0.96653
0.96646
0.96641
0.96635
0.9663
0.96626
0.96622
0.96619
0.96616
0.96614
0.96612
0.9661
0.96609
0.96608
0.96608
0.96608
0.96608
0.96608
0.96609
0.9661
0.96611
0.96612
0.96613
0.96615
0.96617
0.96618
0.9662
0.96622
0.96624
0.96626
0.96627
0.96629
0.96631
0.96632
0.96634
0.96635
0.96636
0.96637
0.96638
0.96638
0.96639
0.96639
0.96638
0.96638
0.96637
0.96635
0.96633
0.96631
0.96628
0.96625
0.96622
0.96618
0.96614
0.96609
0.96603
0.96598
0.96591
0.96584
0.96577
0.96568
0.96559
0.96549
0.96539
0.96527
0.96515
0.96502
0.96488
0.96473
0.96457
0.96441
0.96423
0.96405
0.96385
0.96365
0.96343
0.9632
0.96296
0.96271
0.96244
0.96216
0.96186
0.96155
0.96123
0.96089
0.96053
0.96015
0.95976
0.95935
0.95891
0.95845
0.95798
0.95747
0.95694
0.95638
0.9558
0.95518
0.95454
0.95386
0.95314
0.95239
0.9516
0.95076
0.94988
0.94894
0.94796
0.94691
0.94581
0.94464
0.94341
0.94211
0.94072
0.93926
0.9377
0.93605
0.9343
0.93243
0.93045
0.92833
0.92607
0.92366
0.92108
0.91832
0.91536
0.91219
0.90878
0.90511
0.90116
0.89691
0.89232
0.88736
0.88198
0.87615
0.86979
0.86288
0.85533
0.84708
0.83803
0.82809
0.81716
0.80517
0.79218
0.77817
0.76293
0.74649
0.72863
0.70827
0.68518
0.65931
0.63087
0.59931
0.56633
0.53369
0.50347
0.46963
0.42904
0.38241
0.34398
0.32137
0.31147
0.30444
0.29082
0.26287
0.22255
0.1787
0.13795
0.10972
0.092809
0.0841
0.080252
0.078144
0.075663
0.072968
0.070205
0.067775
0.065734
0.064111
0.062645
0.061238
0.059728
0.058258
0.05689
0.055673
0.054574
0.053565
0.052632
0.051675
0.050701
0.049709
0.048675
0.047634
0.046805
0.046811
0.048327
0.045471
0.035215
0.024084
0.015891
0.012061
0.011321
0.012262
0.012985
0.013067
0.012892
0.012684
0.012509
0.012367
0.012241
0.012123
0.012008
0.011896
0.011789
0.011684
0.011583
0.011484
0.011388
0.011295
0.011203
0.011113
0.011025
0.010939
0.010855
0.010773
0.010692
0.010612
0.010535
0.010459
0.010385
0.010312
0.010241
0.010172
0.010105
0.01004
0.0099764
0.009915
0.0098557
0.0097986
0.0097436
0.0096908
0.0096404
0.0095922
0.0095463
0.0095028
0.0094617
0.009423
0.0093866
0.0093525
0.0093208
0.0092913
0.009264
0.0092389
0.0092159
0.0091949
0.0091758
0.0091585
0.009143
0.0091291
0.0091168
0.0091059
0.0090962
0.0090879
0.0090806
0.0090744
0.0090691
0.0090646
0.0090609
0.0090579
0.0090555
0.0090537
0.0090526
0.0090514
0.0090476
0.0090397
0.0090411
0.0090814
0.0091806
0.0092002
0.0086221
0.0080958
0.0085261
0.0090537
0.010213
0.99872
0.99914
0.99938
0.99964
0.99961
0.99956
0.99954
0.99951
0.99945
0.99935
0.99924
0.99911
0.99896
0.99881
0.99864
0.99845
0.99825
0.99805
0.99784
0.99762
0.9974
0.99716
0.99693
0.99668
0.99643
0.99617
0.9959
0.99563
0.99535
0.99506
0.99476
0.99446
0.99415
0.99384
0.99351
0.99319
0.99285
0.99251
0.99217
0.99182
0.99147
0.99112
0.99076
0.9904
0.99005
0.98969
0.98933
0.98898
0.98863
0.98828
0.98793
0.98759
0.98726
0.98694
0.98662
0.98631
0.98601
0.98573
0.98545
0.98518
0.98493
0.98469
0.98446
0.98425
0.98406
0.98388
0.98373
0.98361
0.98352
0.98347
0.98348
0.98355
0.98368
0.98387
0.98409
0.98433
0.9846
0.98437
0.98389
0.98339
0.98215
0.98079
0.97981
0.97775
0.97537
0.97326
0.9703
0.96707
0.96503
0.96321
0.9609
0.9598
0.95833
0.95724
0.95705
0.9583
0.95935
0.96018
0.96081
0.96128
0.96162
0.96186
0.96203
0.96215
0.96224
0.9623
0.96236
0.96239
0.96241
0.9624
0.96238
0.96234
0.96229
0.96223
0.96217
0.9621
0.96204
0.96197
0.96191
0.96184
0.96178
0.96172
0.96167
0.96162
0.96157
0.96152
0.96148
0.96144
0.9614
0.96137
0.96134
0.96132
0.96129
0.96127
0.96125
0.96124
0.96122
0.96121
0.9612
0.96119
0.96118
0.96118
0.96117
0.96117
0.96116
0.96116
0.96115
0.96115
0.96114
0.96113
0.96113
0.96112
0.96111
0.9611
0.96108
0.96107
0.96105
0.96103
0.961
0.96098
0.96095
0.96091
0.96087
0.96083
0.96079
0.96073
0.96068
0.96062
0.96056
0.96049
0.96042
0.96034
0.96026
0.96017
0.96008
0.95998
0.95987
0.95976
0.95964
0.9595
0.95937
0.95922
0.95906
0.9589
0.95873
0.95855
0.95836
0.95816
0.95795
0.95773
0.9575
0.95726
0.95701
0.95675
0.95647
0.95618
0.95588
0.95556
0.95523
0.95488
0.95452
0.95414
0.95374
0.95333
0.95289
0.95244
0.95196
0.95146
0.95094
0.95039
0.94981
0.94921
0.94858
0.94791
0.94722
0.94649
0.94572
0.94492
0.94407
0.94317
0.94222
0.94122
0.94017
0.93905
0.93788
0.93664
0.93534
0.93396
0.9325
0.93096
0.92933
0.9276
0.92578
0.92385
0.92182
0.91966
0.91737
0.91495
0.91238
0.90966
0.90677
0.9037
0.90045
0.89701
0.89336
0.8895
0.8854
0.88105
0.87644
0.87153
0.86631
0.86076
0.85485
0.84855
0.84184
0.83467
0.827
0.81877
0.80992
0.80047
0.79042
0.77966
0.76814
0.75561
0.74075
0.72342
0.70366
0.68314
0.66199
0.64341
0.62361
0.60485
0.57959
0.54724
0.50815
0.47055
0.43416
0.40436
0.37421
0.33655
0.28782
0.2338
0.18164
0.1429
0.11792
0.10371
0.096218
0.091444
0.086801
0.082552
0.078656
0.075121
0.072303
0.070059
0.068237
0.066564
0.064957
0.063223
0.061601
0.06019
0.058942
0.057823
0.056803
0.055776
0.054697
0.053621
0.052546
0.051432
0.050334
0.049515
0.049765
0.051868
0.045029
0.032194
0.020814
0.014632
0.011905
0.012538
0.01383
0.014172
0.014034
0.013776
0.01355
0.013373
0.013224
0.013089
0.01296
0.012836
0.012716
0.012601
0.012489
0.012381
0.012276
0.012173
0.012073
0.011976
0.011881
0.011788
0.011696
0.011607
0.01152
0.011434
0.01135
0.011268
0.011187
0.011109
0.011032
0.010957
0.010884
0.010813
0.010743
0.010676
0.010611
0.010548
0.010487
0.010428
0.010371
0.010317
0.010265
0.010216
0.010169
0.010124
0.010082
0.010042
0.010005
0.0099699
0.0099372
0.0099067
0.0098785
0.0098524
0.0098283
0.0098063
0.0097861
0.0097678
0.0097512
0.0097363
0.0097228
0.0097109
0.0097002
0.0096908
0.0096826
0.0096755
0.0096693
0.0096641
0.0096597
0.0096561
0.0096534
0.0096514
0.0096495
0.009645
0.0096364
0.0096375
0.0096793
0.0097825
0.0098028
0.0092002
0.0086515
0.0090981
0.009647
0.010849
0.99758
0.99825
0.99865
0.99905
0.99902
0.99895
0.99895
0.99894
0.99887
0.99876
0.99862
0.99847
0.99831
0.99814
0.99796
0.99777
0.99757
0.99737
0.99716
0.99694
0.99671
0.99647
0.99623
0.99598
0.99572
0.99545
0.99517
0.99489
0.99459
0.99429
0.99399
0.99367
0.99335
0.99302
0.99268
0.99233
0.99198
0.99163
0.99127
0.9909
0.99053
0.99016
0.98979
0.98941
0.98904
0.98866
0.98829
0.98791
0.98754
0.98718
0.98682
0.98646
0.98612
0.98577
0.98544
0.98512
0.9848
0.9845
0.98421
0.98393
0.98367
0.98343
0.98322
0.98302
0.98286
0.98271
0.9826
0.98253
0.98252
0.98257
0.98272
0.98297
0.98331
0.98316
0.98267
0.98202
0.98149
0.98032
0.97927
0.978
0.97565
0.973
0.97067
0.96748
0.9641
0.96212
0.95907
0.95588
0.95433
0.95288
0.95222
0.95314
0.95405
0.95494
0.95577
0.95647
0.95702
0.9574
0.95765
0.95781
0.95791
0.95798
0.95805
0.95813
0.95823
0.95833
0.95843
0.95851
0.95858
0.95862
0.95863
0.95863
0.95862
0.95859
0.95856
0.95851
0.95847
0.95841
0.95836
0.95831
0.95825
0.95819
0.95814
0.95808
0.95803
0.95798
0.95793
0.95788
0.95783
0.95779
0.95775
0.95771
0.95767
0.95763
0.95759
0.95756
0.95752
0.95749
0.95746
0.95743
0.9574
0.95737
0.95734
0.95731
0.95728
0.95724
0.95721
0.95718
0.95714
0.95711
0.95707
0.95703
0.95699
0.95695
0.9569
0.95685
0.9568
0.95674
0.95669
0.95662
0.95656
0.95648
0.95641
0.95633
0.95624
0.95616
0.95606
0.95597
0.95587
0.95576
0.95565
0.95553
0.95541
0.95528
0.95514
0.95499
0.95484
0.95468
0.95451
0.95434
0.95415
0.95396
0.95376
0.95355
0.95334
0.95311
0.95287
0.95263
0.95237
0.9521
0.95182
0.95153
0.95123
0.95092
0.95059
0.95026
0.9499
0.94954
0.94915
0.94875
0.94834
0.94791
0.94746
0.94699
0.9465
0.94599
0.94545
0.94489
0.94431
0.9437
0.94306
0.94239
0.9417
0.94097
0.94021
0.93941
0.93856
0.93768
0.93674
0.93576
0.93472
0.93363
0.93248
0.93127
0.93
0.92866
0.92725
0.92576
0.92419
0.92253
0.92079
0.91896
0.91703
0.915
0.91287
0.91063
0.90827
0.90579
0.90319
0.90046
0.8976
0.8946
0.89146
0.8882
0.88479
0.88125
0.87756
0.87372
0.86973
0.86558
0.86127
0.85679
0.85214
0.8473
0.84227
0.83704
0.83158
0.82591
0.82001
0.81386
0.80745
0.80058
0.79309
0.7846
0.77405
0.76153
0.7479
0.73519
0.72505
0.71428
0.69751
0.67952
0.65456
0.62447
0.59106
0.55929
0.52089
0.48686
0.44911
0.39712
0.33213
0.26453
0.20753
0.16686
0.14087
0.12495
0.11386
0.1042
0.095993
0.089287
0.083786
0.079255
0.075826
0.073099
0.070919
0.06899
0.067203
0.065334
0.063647
0.062177
0.060885
0.059743
0.058621
0.057489
0.056319
0.055194
0.054097
0.052967
0.051845
0.051054
0.051439
0.053807
0.043281
0.030072
0.019275
0.013916
0.01176
0.013265
0.014278
0.014431
0.014216
0.013945
0.013723
0.013544
0.013387
0.013241
0.013102
0.012969
0.012843
0.012722
0.012605
0.012492
0.012382
0.012275
0.012171
0.01207
0.011971
0.011874
0.01178
0.011688
0.011597
0.011509
0.011422
0.011337
0.011254
0.011173
0.011094
0.011016
0.010941
0.010867
0.010796
0.010726
0.010659
0.010594
0.010531
0.01047
0.010411
0.010355
0.010301
0.01025
0.010201
0.010154
0.01011
0.010068
0.010028
0.0099912
0.0099563
0.0099237
0.0098933
0.0098651
0.0098389
0.0098148
0.0097925
0.0097722
0.0097536
0.0097366
0.0097213
0.0097074
0.009695
0.0096839
0.009674
0.0096654
0.0096578
0.0096513
0.0096457
0.009641
0.0096373
0.0096345
0.0096318
0.0096267
0.0096176
0.0096182
0.0096596
0.0097624
0.0097825
0.0091806
0.0086328
0.0090787
0.0096271
0.010827
0.99557
0.9966
0.99723
0.99786
0.99791
0.99786
0.99794
0.99799
0.99795
0.99787
0.99775
0.99763
0.99749
0.99734
0.99717
0.997
0.99681
0.99661
0.99641
0.99619
0.99597
0.99573
0.99549
0.99523
0.99497
0.9947
0.99441
0.99412
0.99382
0.99352
0.9932
0.99287
0.99254
0.9922
0.99185
0.99149
0.99113
0.99076
0.99038
0.99
0.98962
0.98923
0.98884
0.98845
0.98806
0.98766
0.98727
0.98688
0.98649
0.98611
0.98573
0.98536
0.98499
0.98464
0.98428
0.98394
0.98361
0.9833
0.983
0.98273
0.98249
0.98228
0.98213
0.98201
0.98193
0.98188
0.98186
0.9819
0.98202
0.98226
0.98203
0.98156
0.98103
0.97964
0.97797
0.97653
0.9753
0.9731
0.97134
0.96856
0.96498
0.9613
0.95915
0.95593
0.95262
0.95113
0.9498
0.94927
0.95023
0.95098
0.9516
0.95212
0.9526
0.95305
0.95344
0.95374
0.95395
0.95407
0.95412
0.95413
0.95414
0.95415
0.95419
0.95426
0.95435
0.95446
0.95457
0.95467
0.95475
0.95481
0.95485
0.95487
0.95488
0.95488
0.95487
0.95484
0.95481
0.95477
0.95473
0.95468
0.95462
0.95457
0.95451
0.95445
0.95439
0.95433
0.95427
0.95421
0.95415
0.95409
0.95404
0.95398
0.95392
0.95386
0.9538
0.95374
0.95368
0.95362
0.95357
0.95351
0.95345
0.95339
0.95333
0.95326
0.9532
0.95314
0.95307
0.953
0.95293
0.95286
0.95278
0.9527
0.95262
0.95253
0.95245
0.95235
0.95226
0.95216
0.95205
0.95194
0.95183
0.95171
0.95158
0.95145
0.95132
0.95118
0.95104
0.9509
0.95074
0.95058
0.95042
0.95024
0.95006
0.94987
0.94968
0.94947
0.94926
0.94904
0.94881
0.94858
0.94834
0.94809
0.94783
0.94756
0.94728
0.947
0.9467
0.94639
0.94608
0.94575
0.94541
0.94506
0.9447
0.94433
0.94394
0.94354
0.94313
0.9427
0.94226
0.9418
0.94133
0.94084
0.94033
0.9398
0.93925
0.93868
0.93808
0.93746
0.93682
0.93615
0.93545
0.93473
0.93398
0.93319
0.93236
0.9315
0.93059
0.92964
0.92864
0.92759
0.92648
0.92533
0.92411
0.92283
0.92149
0.92008
0.9186
0.91704
0.91541
0.9137
0.91191
0.91003
0.90807
0.90602
0.90389
0.90166
0.89934
0.89693
0.89443
0.89183
0.88916
0.8864
0.88357
0.88067
0.87771
0.87469
0.87161
0.86849
0.86533
0.86213
0.8589
0.85563
0.85233
0.84897
0.84557
0.84212
0.83864
0.83512
0.83157
0.82795
0.82417
0.82005
0.81534
0.80974
0.80279
0.79507
0.78822
0.78492
0.78086
0.77118
0.75276
0.72958
0.69795
0.67135
0.64657
0.61931
0.58814
0.56206
0.53204
0.48885
0.4229
0.33851
0.26913
0.21981
0.18604
0.16129
0.14058
0.12345
0.10979
0.099272
0.091196
0.084961
0.080288
0.076657
0.073834
0.071466
0.069396
0.067414
0.065662
0.064134
0.062781
0.061533
0.060292
0.059069
0.05785
0.056717
0.05563
0.05449
0.05336
0.052585
0.052936
0.055235
0.044277
0.030648
0.019521
0.013969
0.011695
0.013097
0.014076
0.01429
0.014169
0.013972
0.013791
0.013624
0.013462
0.013303
0.013152
0.013009
0.012874
0.012746
0.012624
0.012506
0.012392
0.012281
0.012174
0.012069
0.011967
0.011867
0.01177
0.011675
0.011582
0.011491
0.011402
0.011315
0.01123
0.011147
0.011065
0.010986
0.010909
0.010833
0.01076
0.010689
0.01062
0.010553
0.010488
0.010426
0.010366
0.010308
0.010252
0.010199
0.010148
0.0101
0.010054
0.01001
0.0099686
0.0099296
0.0098928
0.0098583
0.0098259
0.0097958
0.0097676
0.0097415
0.0097173
0.009695
0.0096744
0.0096556
0.0096384
0.0096227
0.0096085
0.0095957
0.0095843
0.0095741
0.0095651
0.0095572
0.0095504
0.0095446
0.0095399
0.0095361
0.0095326
0.0095269
0.0095172
0.0095173
0.009558
0.0096596
0.0096793
0.0090814
0.0085376
0.0089807
0.0095256
0.010718
0.99127
0.99305
0.99425
0.99547
0.9958
0.99596
0.99629
0.99652
0.99661
0.99661
0.99656
0.99649
0.9964
0.99628
0.99615
0.99599
0.99583
0.99565
0.99546
0.99525
0.99504
0.99481
0.99457
0.99431
0.99405
0.99378
0.9935
0.9932
0.9929
0.99258
0.99226
0.99192
0.99158
0.99123
0.99087
0.9905
0.99012
0.98974
0.98935
0.98895
0.98855
0.98814
0.98773
0.98732
0.98691
0.98649
0.98608
0.98567
0.98526
0.98485
0.98445
0.98406
0.98367
0.98328
0.98291
0.98256
0.98222
0.98192
0.98165
0.98142
0.98125
0.98116
0.98115
0.9812
0.98129
0.98141
0.98156
0.98116
0.98047
0.97974
0.9782
0.9765
0.97522
0.97265
0.96956
0.96657
0.96435
0.96115
0.95904
0.95633
0.95266
0.94907
0.94747
0.94607
0.94553
0.94658
0.94745
0.94815
0.94869
0.94908
0.94938
0.9496
0.94978
0.94992
0.95003
0.95008
0.9501
0.95008
0.95004
0.95
0.94997
0.94997
0.95
0.95005
0.95012
0.9502
0.95029
0.95038
0.95045
0.95052
0.95057
0.9506
0.95063
0.95063
0.95063
0.95062
0.95059
0.95056
0.95052
0.95047
0.95042
0.95036
0.9503
0.95023
0.95016
0.95009
0.95001
0.94994
0.94986
0.94978
0.9497
0.94961
0.94953
0.94944
0.94935
0.94926
0.94917
0.94908
0.94899
0.94889
0.94879
0.94869
0.94859
0.94849
0.94838
0.94827
0.94816
0.94804
0.94792
0.94779
0.94767
0.94753
0.9474
0.94725
0.94711
0.94696
0.9468
0.94663
0.94647
0.94629
0.94611
0.94593
0.94574
0.94555
0.94534
0.94514
0.94492
0.9447
0.94447
0.94424
0.94399
0.94374
0.94347
0.9432
0.94292
0.94264
0.94234
0.94204
0.94174
0.94142
0.9411
0.94076
0.94042
0.94007
0.93971
0.93934
0.93896
0.93857
0.93817
0.93776
0.93734
0.93691
0.93646
0.93601
0.93554
0.93507
0.93458
0.93407
0.93356
0.93303
0.93248
0.93192
0.93134
0.93074
0.93012
0.92948
0.92883
0.92815
0.92745
0.92673
0.92598
0.9252
0.9244
0.92356
0.92269
0.92178
0.92082
0.91983
0.9188
0.91771
0.91658
0.9154
0.91416
0.91286
0.9115
0.91008
0.90859
0.90704
0.90541
0.90372
0.90197
0.90014
0.89825
0.89629
0.89427
0.89219
0.89004
0.88784
0.88558
0.88329
0.88096
0.87861
0.87625
0.87389
0.87152
0.86918
0.86687
0.86459
0.86237
0.8602
0.85808
0.85601
0.85397
0.85197
0.85001
0.84808
0.84618
0.84432
0.84243
0.8404
0.83807
0.83527
0.83198
0.82839
0.82514
0.82344
0.82517
0.82671
0.82261
0.80929
0.7854
0.75383
0.72576
0.7037
0.68359
0.66564
0.64994
0.63844
0.62199
0.59362
0.54217
0.47185
0.39069
0.3213
0.26783
0.22351
0.18665
0.15715
0.13435
0.11715
0.10433
0.094698
0.087558
0.082135
0.078051
0.074821
0.072234
0.069985
0.068078
0.066419
0.064957
0.06354
0.062187
0.060894
0.059665
0.058545
0.05745
0.056302
0.05517
0.054379
0.054573
0.056508
0.048618
0.0362
0.02373
0.016459
0.012834
0.012749
0.013221
0.013724
0.013881
0.01389
0.013837
0.013736
0.0136
0.013445
0.013286
0.013132
0.012986
0.012848
0.012717
0.012593
0.012473
0.012358
0.012246
0.012138
0.012032
0.011929
0.011829
0.011731
0.011635
0.011541
0.01145
0.01136
0.011273
0.011188
0.011104