/*--------------------------------*- C++ -*----------------------------------*\
| =========                 |                                                 |
| \\      /  F ield         | OpenFOAM: The Open Source CFD Toolbox           |
|  \\    /   O peration     | Version:  5.x                                   |
|   \\  /    A nd           | Web:      www.OpenFOAM.org                      |
|    \\/     M anipulation  |                                                 |
\*---------------------------------------------------------------------------*/
FoamFile
{
    version     2.0;
    format      ascii;
    class       volScalarField;
    location    "170";
    object      gamma;
}
// * * * * * * * * * * * * * * * * * * * * * * * * * * * * * * * * * * * * * //

dimensions      [0 0 0 0 0 0 0];

internalField   nonuniform List<scalar> 
86400
(
5.617e-08
8.043e-08
1.478e-07
3.813e-07
1.068e-06
2.104e-06
2.492e-06
3.072e-06
4.015e-06
4.117e-06
4.042e-06
2.621e-06
1.458e-06
5.735e-07
8.655e-07
2.432e-06
1.881e-05
4.936e-05
0.0001123
7.664e-05
7.073e-05
8.472e-05
0.0001751
0.0001918
0.0002498
0.0004974
0.0007362
0.001233
0.001665
0.00209
0.001947
0.001836
0.001655
0.001469
0.001407
0.001668
0.001657
0.001602
0.001301
0.00129
0.001248
0.001396
0.001196
0.000872
0.0007912
0.0008991
0.00127
0.001575
0.0018
0.001638
0.001664
0.001783
0.001909
0.001981
0.002038
0.002355
0.002866
0.003284
0.003523
0.003525
0.003071
0.003085
0.002836
0.002862
0.003387
0.004262
0.005056
0.00532
0.004159
0.003626
0.004168
0.005445
0.007577
0.006978
0.005933
0.004494
0.003133
0.002714
0.003009
0.003338
0.004357
0.004816
0.004349
0.003757
0.003489
0.003072
0.003272
0.003373
0.003812
0.004203
0.003895
0.004331
0.004922
0.006643
0.007563
0.008349
0.007442
0.007535
0.007724
0.007414
0.006737
0.006879
0.006054
0.005127
0.003228
0.002994
0.003279
0.005111
0.005438
0.005265
0.003843
0.003289
0.002724
0.002051
0.001309
0.0009252
0.0007841
0.0007395
0.000668
0.000651
0.0007383
0.0008432
0.001063
0.00119
0.001105
0.0009917
0.0008696
0.0007878
0.0006983
0.0005773
0.0003839
0.000293
0.0002455
0.0002145
0.0001953
0.000207
0.0002555
0.0003337
0.0001587
3.343e-05
7.793e-06
6.443e-06
9.225e-06
1.13e-05
5.828e-06
1.043e-06
1.352e-07
2.564e-08
1.456e-08
9.821e-09
2.671e-08
5.03e-08
2.382e-07
4.953e-07
2.875e-06
1.035e-05
3.426e-05
5.764e-05
0.04192
0.9967
7.987e-08
9.886e-08
1.673e-07
3.355e-07
7.826e-07
1.323e-06
1.435e-06
1.631e-06
1.797e-06
1.177e-06
1.039e-06
9.018e-07
8.642e-07
9.174e-07
1.79e-06
4.258e-06
1.662e-05
4.801e-05
0.0001205
0.0001341
0.0001616
0.0002629
0.0005278
0.0007241
0.0009712
0.001228
0.001108
0.001084
0.001066
0.001029
0.0008974
0.0009747
0.001082
0.00122
0.001412
0.001817
0.001946
0.002176
0.002143
0.002253
0.002117
0.002152
0.001896
0.001532
0.001405
0.001635
0.002091
0.002665
0.003306
0.003516
0.00398
0.004711
0.005499
0.006156
0.006324
0.005524
0.004555
0.003862
0.003397
0.003296
0.003228
0.003403
0.003065
0.003131
0.003789
0.005676
0.007101
0.007846
0.006627
0.006318
0.007431
0.008036
0.007258
0.005098
0.003602
0.003105
0.003739
0.004895
0.005848
0.006101
0.007008
0.007593
0.008279
0.008363
0.008416
0.007842
0.008536
0.009117
0.01136
0.01425
0.01552
0.01764
0.01819
0.01747
0.01569
0.01437
0.01243
0.0105
0.008025
0.006896
0.006581
0.008188
0.01095
0.009786
0.004884
0.003454
0.003264
0.004055
0.005411
0.005903
0.004136
0.003771
0.003966
0.004123
0.003604
0.002753
0.00212
0.001832
0.001619
0.001603
0.001653
0.001539
0.001492
0.001415
0.001325
0.00148
0.001588
0.001694
0.001541
0.001206
0.0007535
0.0005805
0.0004938
0.0005671
0.0006598
0.0006294
0.000589
0.0005178
0.0002413
6.991e-05
3.547e-05
2.31e-05
1.578e-05
9.054e-06
3.092e-06
5.335e-07
1.453e-07
8.569e-08
1.487e-07
2.128e-07
4.407e-07
8.217e-07
3.839e-06
1.194e-05
8.284e-05
0.000675
0.006588
0.145
0.9504
0.9996
1.545e-07
1.791e-07
2.459e-07
3.561e-07
6.811e-07
9.531e-07
9.324e-07
1.005e-06
9.369e-07
6.351e-07
6.424e-07
8.752e-07
1.221e-06
2.043e-06
4.242e-06
1.332e-05
4.554e-05
0.0001605
0.000318
0.0004109
0.000349
0.0005379
0.000842
0.001195
0.001821
0.002782
0.002814
0.0027
0.002506
0.00198
0.001737
0.002178
0.002434
0.002443
0.002206
0.002169
0.001993
0.002219
0.002189
0.001991
0.00148
0.001332
0.001164
0.001223
0.001574
0.002383
0.003395
0.00487
0.006883
0.006456
0.005093
0.00389
0.00312
0.002885
0.003329
0.003042
0.002702
0.002366
0.002218
0.002259
0.002534
0.002938
0.002951
0.003644
0.004064
0.004754
0.005314
0.00569
0.005139
0.005221
0.005807
0.004915
0.003777
0.003208
0.003209
0.004988
0.008833
0.01265
0.01375
0.01404
0.01487
0.01611
0.01821
0.01964
0.02203
0.02169
0.0221
0.02181
0.01801
0.01337
0.008796
0.006033
0.005526
0.006914
0.008118
0.009314
0.009977
0.007416
0.005234
0.004556
0.004453
0.005447
0.007485
0.006023
0.003129
0.002603
0.003236
0.004963
0.008353
0.008595
0.006557
0.007361
0.008853
0.009653
0.007893
0.005721
0.003734
0.002825
0.002284
0.002238
0.002018
0.001943
0.001754
0.001502
0.001294
0.001393
0.001423
0.001512
0.001405
0.001144
0.0007971
0.000651
0.0005623
0.0007164
0.0008859
0.0007395
0.0005768
0.000403
0.0002016
7.197e-05
4.121e-05
2.168e-05
1.248e-05
7.254e-06
3.522e-06
1.134e-06
4.81e-07
4.397e-07
9.101e-07
2.326e-06
7.983e-06
1.801e-05
6.378e-05
0.0002469
0.002163
0.03484
0.5703
0.9748
0.9994
1
3.416e-07
3.495e-07
3.785e-07
4.033e-07
5.65e-07
5.75e-07
4.658e-07
4.593e-07
4.557e-07
4.169e-07
6.071e-07
6.065e-07
6.157e-07
1.303e-06
3.997e-06
1.081e-05
3.701e-05
8.241e-05
5.787e-05
4.728e-05
3.439e-05
3.831e-05
7.565e-05
0.0001469
0.0003031
0.0006916
0.00109
0.001347
0.001572
0.001503
0.001436
0.002235
0.003092
0.003608
0.003152
0.00277
0.002358
0.002734
0.002816
0.00244
0.001747
0.001687
0.001909
0.002839
0.003478
0.003844
0.003202
0.00305
0.003474
0.003157
0.002133
0.001577
0.001455
0.001388
0.001704
0.001439
0.001054
0.00089
0.001077
0.001494
0.00208
0.002817
0.003295
0.004126
0.004294
0.004387
0.004104
0.003867
0.003387
0.004713
0.006922
0.006231
0.005583
0.005686
0.005083
0.008661
0.01442
0.01687
0.01397
0.01468
0.01229
0.01034
0.009013
0.00731
0.006414
0.00665
0.006755
0.006818
0.006277
0.00599
0.00542
0.004586
0.005028
0.00636
0.007248
0.007873
0.008908
0.005938
0.003977
0.003353
0.003451
0.004537
0.007135
0.006363
0.003314
0.001954
0.00174
0.00251
0.00381
0.004142
0.003292
0.003312
0.003074
0.004499
0.0051
0.005712
0.004993
0.005198
0.004233
0.004354
0.003563
0.003335
0.00262
0.002093
0.001776
0.00195
0.002224
0.002525
0.002561
0.002226
0.00164
0.001428
0.00137
0.00155
0.00148
0.0008669
0.0004087
0.0001352
7.228e-05
3.23e-05
2.332e-05
1.354e-05
8.71e-06
5.676e-06
4.183e-06
2.542e-06
2.298e-06
5.737e-06
2.593e-05
7.954e-05
0.0002454
0.0006803
0.002326
0.01413
0.1668
0.8805
0.992
0.9999
1
1
9.687e-07
7.86e-07
6.782e-07
5.923e-07
5.549e-07
4.603e-07
2.939e-07
2.723e-07
3.291e-07
3.767e-07
6.983e-07
4.715e-07
1.764e-07
2.955e-07
1.438e-06
7.033e-06
6.425e-05
6.737e-05
1.858e-05
7.469e-06
6.76e-06
8.04e-06
1.806e-05
2.369e-05
5.079e-05
0.0001915
0.0008323
0.00262
0.005424
0.003842
0.002024
0.001792
0.001526
0.001347
0.001227
0.00106
0.000797
0.001163
0.001952
0.002647
0.001743
0.0009158
0.000437
0.0003757
0.0003197
0.0003117
0.0003011
0.000454
0.0009512
0.001551
0.001305
0.0008278
0.0009723
0.001208
0.001648
0.001298
0.0008007
0.0007339
0.001045
0.00191
0.003435
0.005716
0.008197
0.01028
0.008506
0.005376
0.003852
0.002823
0.001988
0.002188
0.003154
0.002886
0.003873
0.006094
0.006599
0.006983
0.007179
0.004568
0.002455
0.001952
0.0009855
0.000471
0.0003599
0.0003976
0.0006504
0.001555
0.002757
0.002968
0.00281
0.002788
0.002274
0.002234
0.003032
0.004148
0.006083
0.006615
0.007078
0.004616
0.003441
0.002311
0.001206
0.0008145
0.001189
0.001648
0.002047
0.002546
0.002723
0.003441
0.004096
0.003794
0.00246
0.002014
0.001544
0.00269
0.00274
0.002836
0.002213
0.002175
0.00147
0.001738
0.001565
0.001569
0.001332
0.001048
0.0008845
0.0008893
0.0009211
0.001124
0.00137
0.001491
0.001463
0.001399
0.001282
0.001104
0.0007812
0.0003463
0.0001234
4.495e-05
2.44e-05
1.149e-05
9.517e-06
7.14e-06
7.614e-06
1.021e-05
1.481e-05
1.758e-05
2.272e-05
4.552e-05
0.0001773
0.0007782
0.003633
0.01829
0.1203
0.7078
0.9678
0.9986
1
1
1
1
1.767e-06
1.248e-06
1.007e-06
8.402e-07
5.706e-07
3.831e-07
2.671e-07
2.575e-07
4.127e-07
7.203e-07
1.861e-06
7.831e-07
1.541e-07
1.102e-07
9.682e-07
3.816e-06
3.437e-05
2.431e-05
6.635e-06
2.724e-06
5.958e-06
9.364e-06
2.147e-05
1.155e-05
1.126e-05
2.198e-05
7.048e-05
0.0003663
0.001427
0.001217
0.0005692
0.0003748
0.0002896
0.0002765
0.0004046
0.00044
0.0002473
0.0002437
0.0003358
0.0002618
8.741e-05
3.333e-05
7.772e-06
3.282e-06
2.073e-06
1.065e-06
4.483e-07
6.956e-07
2.459e-06
8.6e-06
1.491e-05
2.375e-05
5.506e-05
0.0002007
0.0004524
0.000367
0.0001569
0.0001173
0.0001833
0.0005673
0.001521
0.002962
0.003544
0.004411
0.003952
0.00259
0.002964
0.002598
0.001788
0.00175
0.002721
0.002487
0.003513
0.003946
0.001959
0.0006532
0.0001882
8.337e-05
7.067e-05
0.0001195
0.0001328
0.0001019
7.536e-05
0.0001025
0.0002453
0.0009326
0.002667
0.003519
0.004143
0.004587
0.004736
0.003568
0.003393
0.003019
0.002641
0.002629
0.002454
0.002137
0.00257
0.002372
0.001407
0.0008048
0.0007896
0.001018
0.001711
0.002329
0.00169
0.001908
0.002049
0.001836
0.0008364
0.0004587
0.0002475
0.0004742
0.0007029
0.001077
0.001054
0.0009683
0.0007065
0.0008248
0.0007012
0.0006561
0.0005538
0.0004393
0.0003857
0.0003845
0.0003833
0.0004755
0.0005898
0.0006457
0.0005942
0.0005374
0.000474
0.0003632
0.0002975
0.0001662
0.0001064
5.832e-05
3.888e-05
1.92e-05
1.811e-05
1.852e-05
2.313e-05
3.625e-05
6.908e-05
0.0001169
0.0002752
0.0009343
0.004221
0.02157
0.1256
0.6429
0.9534
0.9962
0.9999
1
1
1
1
1
2.435e-06
1.395e-06
9.537e-07
6.503e-07
5.174e-07
4.374e-07
4.436e-07
5.396e-07
1.225e-06
2.289e-06
4.809e-06
1.773e-06
1.477e-07
6.888e-08
3.996e-07
2.41e-06
4.671e-05
0.0001104
4.51e-05
2.69e-05
8.944e-05
0.0001074
0.0001659
4.661e-05
2.055e-05
2.439e-05
6.075e-05
0.0002234
0.0009891
0.0009817
0.0005288
0.0002106
0.0001478
0.0001707
0.0003012
0.0003296
0.0001263
7.977e-05
0.000113
7.594e-05
1.376e-05
2.097e-06
1.405e-07
2.107e-08
9.184e-09
1.959e-09
6.902e-10
1.627e-09
1.537e-08
1.321e-07
5.276e-07
6.506e-07
8.041e-07
1.702e-06
2.001e-06
2.696e-06
3.947e-06
1.08e-05
5.033e-05
0.0002849
0.0007982
0.001797
0.002599
0.004548
0.004845
0.002608
0.002898
0.002388
0.001731
0.001259
0.001588
0.0009356
0.00105
0.0009873
0.0005156
0.0001632
4.178e-05
1.946e-05
1.484e-05
2.854e-05
4.929e-05
6.662e-05
7.563e-05
0.000118
0.0002213
0.0003582
0.0006048
0.0006538
0.001185
0.003077
0.00428
0.00333
0.001991
0.001203
0.000771
0.0005086
0.000269
0.0001617
0.0001531
0.0001409
0.0001617
0.0001416
0.0002173
0.0005679
0.001933
0.002957
0.00235
0.002274
0.002061
0.00132
0.0005937
0.0002231
0.0001068
0.0002001
0.0004481
0.0006667
0.0006227
0.0004498
0.0003046
0.00034
0.000333
0.0003513
0.0003447
0.0002971
0.0002297
0.0001668
0.0001209
0.0001187
0.0001408
0.0001846
0.000198
0.0001896
0.0001557
9.771e-05
8.437e-05
9.543e-05
0.0001157
0.0001207
0.0001364
9.285e-05
9.653e-05
0.0001425
0.0002773
0.0006964
0.002522
0.008518
0.02737
0.09158
0.3595
0.8312
0.9687
0.9969
0.9999
1
1
1
1
1
1
1
4.519e-06
1.776e-06
9.255e-07
5.827e-07
5.484e-07
5.741e-07
1.009e-06
1.77e-06
2.774e-06
2.131e-06
3.059e-06
9.398e-07
8.091e-08
7.066e-08
5.105e-07
4.148e-06
9.729e-05
0.0004906
0.0005333
0.0008965
0.002042
0.002004
0.002118
0.0006218
0.0002067
7.087e-05
4.482e-05
7.167e-05
0.000231
0.00033
0.000286
0.0002105
0.0001658
0.0002448
0.000501
0.0006345
0.0002465
0.0001578
0.0001784
4.33e-05
3.583e-06
1.712e-07
6.835e-09
7.159e-10
6.008e-10
1.378e-10
4.88e-11
7.522e-11
2.074e-10
1.437e-09
7.557e-09
1.03e-08
1.81e-08
4.955e-08
5.264e-08
6.317e-08
1.73e-07
1.179e-06
1.244e-05
0.0001458
0.0005709
0.001508
0.002601
0.00625
0.00674
0.003634
0.00287
0.001829
0.0009325
0.0004687
0.0002934
0.0001344
0.0001088
0.0001375
0.0001315
7.413e-05
1.92e-05
1.007e-05
7.48e-06
1.567e-05
3.556e-05
8.763e-05
0.0001613
0.0002602
0.0003097
0.0002592
0.0003113
0.0003438
0.0006013
0.001909
0.003658
0.003155
0.001234
0.0008275
0.0005945
0.000459
0.0003382
0.0002296
0.0001354
0.0001071
0.0001729
0.000226
0.0003228
0.0003644
0.0004839
0.0004468
0.00043
0.0005972
0.0007719
0.0005605
0.0002
3.588e-05
1.954e-05
4.905e-05
0.0001869
0.0003512
0.0004148
0.0001933
0.0001072
0.0001082
0.0001087
0.0001093
0.0001118
0.0001104
9.712e-05
7.774e-05
5.871e-05
5.729e-05
7.064e-05
0.0001051
0.000141
0.0001511
0.0001178
7.116e-05
7.252e-05
0.0001322
0.0003412
0.0006829
0.001173
0.001502
0.003101
0.008329
0.02469
0.05991
0.1906
0.6679
0.8992
0.9775
0.9958
0.9995
0.9999
1
1
1
1
1
1
1
1
1
8.822e-06
2.081e-06
7.93e-07
4.341e-07
4.758e-07
7.283e-07
2.712e-06
3.157e-06
2.259e-06
1.052e-06
6.458e-07
2.745e-07
9.751e-08
2.183e-07
1.938e-06
1.216e-05
5.544e-05
0.0001507
0.0001634
0.000215
0.0007136
0.002197
0.00514
0.005007
0.003553
0.000918
0.0002323
0.0001128
0.0001585
0.000257
0.0004253
0.0003835
0.0002461
0.0003121
0.0004578
0.0005361
0.0002537
0.0001909
0.0002859
2.365e-05
6.704e-07
1.157e-08
3.204e-10
5.975e-11
3.08e-10
2.154e-10
1.137e-10
1.085e-10
1.089e-10
1.7e-10
9.608e-10
2.188e-09
7.221e-09
1.183e-08
6.892e-09
3.271e-09
7.54e-09
8.979e-08
2.182e-06
6.584e-05
0.0004992
0.001544
0.00235
0.004298
0.003263
0.001217
0.0005497
0.000274
7.896e-05
3.565e-05
1.751e-05
8.556e-06
6.899e-06
1.406e-05
1.796e-05
4.195e-05
3.838e-05
3.88e-05
3.75e-05
0.0001114
0.0006775
0.006362
0.03918
0.07585
0.0588
0.02379
0.01471
0.01826
0.02519
0.0408
0.04686
0.03851
0.02548
0.02602
0.02011
0.0326
0.04
0.01902
0.005868
0.0009857
0.0005639
0.0003398
0.0004753
0.0004204
0.0002949
0.0001722
0.0002157
0.0002053
0.0002231
0.0001312
3.407e-05
7.005e-06
7.537e-06
9.502e-06
2.747e-05
4.861e-05
6.607e-05
3.551e-05
2.481e-05
1.849e-05
1.661e-05
1.732e-05
2.045e-05
2.548e-05
2.841e-05
2.66e-05
2.185e-05
2.223e-05
3.361e-05
7.991e-05
0.0002264
0.0005038
0.0006662
0.0006736
0.001023
0.002605
0.009234
0.02566
0.04881
0.09438
0.3243
0.7152
0.9142
0.9765
0.994
0.9989
0.9998
1
1
1
1
1
1
1
1
1
1
1
1
1
7.551e-06
1.715e-06
8.138e-07
5.669e-07
8.733e-07
1.664e-06
3.622e-06
1.755e-06
7.623e-07
3.987e-07
1.964e-07
2.308e-07
3.005e-07
1.309e-06
1.286e-05
4.274e-05
4.18e-05
1.889e-05
7.091e-06
4.524e-06
1.647e-05
0.0001176
0.000986
0.00413
0.006227
0.001704
0.0002982
0.0001163
0.0001124
0.0003146
0.0008137
0.0007491
0.0003384
0.0002602
0.0001907
0.0002738
0.0003726
0.0005453
0.0006123
2.553e-05
3.913e-07
4.184e-09
1.758e-10
8.349e-11
1.194e-09
2.551e-09
1.228e-09
3.742e-10
5.145e-11
1.984e-11
1.339e-10
8.764e-10
9.493e-09
2.552e-08
5.81e-09
7.752e-10
1.022e-09
1.374e-08
1.067e-06
7.526e-05
0.0005309
0.001133
0.0005919
0.0004556
0.0001729
6.063e-05
2.985e-05
1.898e-05
8.635e-06
8.593e-06
7.952e-06
8.823e-06
1.841e-05
0.0001254
0.000288
0.001124
0.003188
0.0143
0.04448
0.3389
0.7827
0.9168
0.9726
0.9897
0.994
0.996
0.9971
0.9972
0.9959
0.9955
0.9952
0.9956
0.9964
0.9966
0.9957
0.9966
0.9965
0.994
0.9812
0.8865
0.4392
0.08841
0.04027
0.01213
0.002215
0.0004757
0.0003759
0.0002468
0.0001943
8.713e-05
1.489e-05
4.042e-06
6.639e-06
7.827e-06
2.87e-05
6.797e-05
0.0001458
0.0001238
0.0001159
6.976e-05
5.965e-05
6.775e-05
9.602e-05
0.0001615
0.0002588
0.0003371
0.0003531
0.0003944
0.0006755
0.00173
0.006235
0.01741
0.02819
0.03444
0.06857
0.2239
0.6893
0.9017
0.9691
0.9911
0.9977
0.9994
0.9998
1
1
1
1
1
1
1
1
1
1
1
1
1
1
1
1
1
3.055e-06
8.098e-07
5.965e-07
8.364e-07
2.303e-06
4.842e-06
3.202e-06
7.895e-07
2.307e-07
1.539e-07
1.268e-07
3.314e-07
1.372e-06
1.164e-05
4.693e-05
8.927e-05
2.014e-05
1.278e-06
1.658e-07
8.974e-08
5.631e-07
7.786e-06
0.0002498
0.00235
0.006264
0.002453
0.0009522
0.0004137
0.0003136
0.0006653
0.001039
0.000464
9.425e-05
2.536e-05
1.643e-05
2.54e-05
8.471e-05
0.0003033
0.0004792
4.389e-05
1.085e-06
1.463e-08
9.618e-10
7.206e-10
6.365e-09
1.354e-08
8.232e-09
1.711e-09
1.425e-10
3.982e-11
2.314e-10
2.826e-09
8.395e-08
3.237e-07
6.454e-08
4.289e-09
3.451e-09
3.915e-08
2.851e-06
0.000207
0.000792
0.0005397
0.0001238
6.286e-05
3.319e-05
1.753e-05
1.044e-05
7.418e-06
6.074e-06
1.183e-05
3.639e-05
0.0001677
0.001109
0.009962
0.03575
0.2152
0.7029
0.9457
0.9849
0.9971
0.9991
0.9997
0.9999
1
1
1
1
1
1
1
1
1
1
1
1
1
1
1
1
0.9999
0.9986
0.995
0.9894
0.9694
0.8411
0.1972
0.04853
0.01269
0.004425
0.0007978
0.0002155
7.505e-05
0.0001621
0.0002002
0.0004167
0.000764
0.002119
0.002161
0.002294
0.001186
0.0007986
0.0007179
0.0009693
0.002061
0.005721
0.01252
0.01978
0.02696
0.05938
0.2041
0.6923
0.9053
0.9732
0.99
0.9963
0.9984
0.9994
0.9998
0.9999
1
1
1
1
1
1
1
1
1
1
1
1
1
1
1
1
1
1
1
1
1
7.781e-07
3.346e-07
4.287e-07
8.598e-07
1.813e-06
3.792e-06
1.429e-06
4.765e-07
2.13e-07
5.297e-07
6e-07
3.415e-06
1.955e-05
7.13e-05
0.0001253
0.0001449
1.424e-05
5.213e-07
4.141e-08
1.471e-08
1.164e-07
6.039e-06
0.000429
0.00343
0.006719
0.002195
0.001125
0.0006443
0.0006875
0.001304
0.001348
0.0003823
4.04e-05
8.206e-06
3.351e-06
5.393e-06
2.495e-05
8.666e-05
0.0001139
1.708e-05
7.028e-07
3.411e-08
5.127e-09
4.829e-09
1.369e-08
1.463e-08
7.572e-09
9.512e-10
5.64e-11
1.805e-11
1.068e-10
4.067e-09
4.594e-07
6.427e-06
2.291e-06
1.223e-07
4.061e-08
2.403e-07
7.508e-06
0.0002104
0.0003586
0.0001233
1.427e-05
4.916e-06
3.468e-06
5.005e-06
1.166e-05
4.32e-05
0.0001734
0.0007198
0.005969
0.03791
0.4724
0.8625
0.9621
0.9915
0.9985
0.9999
1
1
1
1
1
1
1
1
1
1
1
1
1
1
1
1
1
1
1
1
1
1
1
1
1
1
0.9998
0.9986
0.9953
0.9828
0.9392
0.6877
0.05587
0.00694
0.006039
0.005831
0.01257
0.01587
0.02704
0.03096
0.02505
0.0163
0.01547
0.02253
0.0579
0.2718
0.6879
0.9042
0.9703
0.9882
0.9956
0.9982
0.9993
0.9998
1
1
1
1
1
1
1
1
1
1
1
1
1
1
1
1
1
1
1
1
1
1
1
1
1
1
1
1
4.207e-07
3.513e-07
5.009e-07
1.055e-06
2.051e-06
3.619e-06
1.121e-06
5.132e-07
5.35e-07
1.113e-06
2.296e-06
1.615e-05
6.52e-05
0.0001391
0.0002304
0.0001668
2.669e-05
1.147e-06
8.575e-08
2.044e-08
1.233e-07
5.177e-06
0.0003701
0.002854
0.00734
0.004009
0.003563
0.002837
0.003048
0.003751
0.002772
0.0007646
0.0001348
3.016e-05
9.475e-06
1.014e-05
3.556e-05
8.288e-05
8.658e-05
2.413e-05
3.241e-06
3.271e-07
1.092e-07
7.63e-08
5.576e-08
5.064e-08
1.98e-08
6.582e-09
1.042e-09
7.393e-10
2.656e-09
3.991e-08
1.159e-06
6.361e-06
2.928e-06
3.879e-07
2.583e-07
1.266e-06
3.495e-05
0.0002146
0.0001063
2.004e-05
2.692e-06
2.692e-06
1.131e-05
8.468e-05
0.0008178
0.01057
0.0911
0.5404
0.8825
0.9749
0.9953
0.9989
0.9999
1
1
1
1
1
1
1
1
1
1
1
1
1
1
1
1
1
1
1
1
1
1
1
1
1
1
1
1
1
1
1
1
1
0.9999
0.9996
0.9987
0.9974
0.9965
0.9948
0.9945
0.9921
0.9916
0.992
0.9916
0.9918
0.992
0.9932
0.9958
0.9981
0.9991
0.9998
0.9999
1
1
1
1
1
1
1
1
1
1
1
1
1
1
1
1
1
1
1
1
1
1
1
1
1
1
1
1
1
1
1
1
1
5.52e-07
6.381e-07
1.175e-06
1.719e-06
2.928e-06
3.76e-06
1.967e-06
1.356e-06
3.412e-06
4.24e-06
8.827e-06
3.143e-05
9.075e-05
0.0001202
0.0001722
0.0001703
0.0001004
7.51e-06
7.856e-07
1.444e-07
5.639e-07
1.225e-05
0.0004588
0.002031
0.003508
0.00277
0.003908
0.005162
0.0066
0.007156
0.005278
0.002467
0.0009481
0.000325
9.556e-05
6.704e-05
0.0001062
0.0001622
0.0001747
0.0001102
3.228e-05
7.786e-06
4.347e-06
2.959e-06
1.094e-06
1.115e-06
6.73e-07
3.571e-07
8.384e-08
4.748e-08
4.602e-08
1.808e-07
8.342e-07
1.796e-06
1.001e-06
4.634e-07
1.037e-06
1.078e-05
0.0001472
0.0003029
0.000104
5.186e-05
4.148e-05
0.0001903
0.003188
0.06371
0.5846
0.9172
0.9819
0.9951
0.9992
0.9999
1
1
1
1
1
1
1
1
1
1
1
1
1
1
1
1
1
1
1
1
1
1
1
1
1
1
1
1
1
1
1
1
1
1
1
1
1
1
1
1
1
1
1
1
1
1
1
1
1
1
1
1
1
1
1
1
1
1
1
1
1
1
1
1
1
1
1
1
1
1
1
1
1
1
1
1
1
1
1
1
1
1
1
1
1
1
1
1
2.063e-06
2.504e-06
5.237e-06
2.792e-06
4.302e-06
3.342e-06
3.784e-06
5.702e-06
1.74e-05
9.579e-06
1.757e-05
1.473e-05
4.48e-05
3.968e-05
7.141e-05
4.488e-05
1.401e-05
5.409e-07
3.938e-08
7.482e-09
3.052e-08
7.013e-07
3.392e-05
0.000175
0.000545
0.0006598
0.001039
0.001943
0.003241
0.003509
0.002951
0.001941
0.001607
0.001067
0.0005226
0.0003143
0.0004124
0.0005162
0.0006955
0.0009033
0.0003122
0.000127
7.002e-05
6.124e-05
2.62e-05
4.271e-05
3.425e-05
2.583e-05
9.236e-06
6.447e-06
3.149e-06
2.683e-06
3.382e-06
4.724e-06
4.483e-06
3.354e-06
9.199e-06
3.904e-05
0.0002173
0.0003794
0.0004336
0.000789
0.003826
0.07766
0.7952
0.9694
0.9945
0.9994
0.9999
1
1
1
1
1
1
1
1
1
1
1
1
1
1
1
1
1
1
1
1
1
1
1
1
1
1
1
1
1
1
1
1
1
1
1
1
1
1
1
1
1
1
1
1
1
1
1
1
1
1
1
1
1
1
1
1
1
1
1
1
1
1
1
1
1
1
1
1
1
1
1
1
1
1
1
1
1
1
1
1
1
1
1
1
1
1
1
1
1
1
1
4.696e-06
6.5e-06
1.921e-05
8.167e-06
6.488e-06
3.149e-06
4.742e-06
1.02e-05
2.682e-05
1.189e-05
1.998e-05
1.3e-05
1.812e-05
2.62e-05
2.263e-05
2.772e-06
4.548e-07
1.166e-08
7e-10
1.563e-10
1.096e-09
7.308e-08
6.811e-06
7.596e-05
0.0003927
0.0003758
0.0008455
0.001594
0.002959
0.003123
0.002803
0.002088
0.002297
0.002404
0.001769
0.001439
0.001912
0.002112
0.002866
0.004553
0.001869
0.0008571
0.0004638
0.0005035
0.0002313
0.000248
0.0002098
0.0002269
0.0002141
0.0002302
0.0001281
6.054e-05
3.897e-05
2.066e-05
1.585e-05
1.604e-05
3.27e-05
0.0001231
0.001002
0.003065
0.01398
0.1294
0.7183
0.9628
0.9961
0.9996
1
1
1
1
1
1
1
1
1
1
1
1
1
1
1
1
1
1
1
1
1
1
1
1
1
1
1
1
1
1
1
1
1
1
1
1
1
1
1
1
1
1
1
1
1
1
1
1
1
1
1
1
1
1
1
1
1
1
1
1
1
1
1
1
1
1
1
1
1
1
1
1
1
1
1
1
1
1
1
1
1
1
1
1
1
1
1
1
1
1
1
1
1
1
1.046e-05
1.966e-05
7.469e-05
4.137e-05
1.903e-05
8.994e-06
1.742e-05
2.688e-05
4.225e-05
2.148e-05
2.269e-05
2.299e-05
3.352e-05
4.575e-05
8.104e-06
3.592e-07
2.605e-08
7.837e-10
9.479e-11
4.179e-11
7.762e-10
6.338e-08
5.372e-06
7.972e-05
0.0005981
0.0004959
0.0008613
0.001573
0.002511
0.002304
0.002009
0.001369
0.001841
0.002189
0.002749
0.003056
0.004768
0.004633
0.005677
0.007777
0.004067
0.002707
0.001882
0.001884
0.0007317
0.0004941
0.0002356
0.0002194
0.0003519
0.0006478
0.0004865
0.0001917
0.0001147
5.918e-05
9.132e-05
0.0001366
0.0004344
0.001666
0.01791
0.14
0.6708
0.9433
0.9954
0.9998
1
1
1
1
1
1
1
1
1
1
1
1
1
1
1
1
1
1
1
1
1
1
1
1
1
1
1
1
1
1
1
1
1
1
1
1
1
1
1
1
1
1
1
1
1
1
1
1
1
1
1
1
1
1
1
1
1
1
1
1
1
1
1
1
1
1
1
1
1
1
1
1
1
1
1
1
1
1
1
1
1
1
1
1
1
1
1
1
1
1
1
1
1
1
1
1
7.323e-06
2.111e-05
0.0001176
6.609e-05
2.761e-05
2.354e-05
4.962e-05
0.0001679
0.0001711
8.863e-05
4.944e-05
4.064e-05
3.841e-05
4.823e-05
1.922e-06
6.308e-08
6.498e-09
6.854e-10
1.909e-10
1.892e-10
5.29e-09
3.536e-07
3.311e-05
0.0003679
0.00162
0.0008425
0.001122
0.001465
0.002212
0.002248
0.002132
0.001641
0.002525
0.003072
0.002999
0.003244
0.004067
0.002446
0.001616
0.001734
0.001573
0.002308
0.004126
0.005691
0.00253
0.000993
0.0002024
0.0001021
7.991e-05
0.0001167
0.0001104
8.327e-05
0.0001424
0.0002834
0.0008177
0.003094
0.02198
0.124
0.7914
0.9656
0.9954
0.9996
1
1
1
1
1
1
1
1
1
1
1
1
1
1
1
1
1
1
1
1
1
1
1
1
1
1
1
1
1
1
1
1
1
1
1
1
1
1
1
1
1
1
1
1
1
1
1
1
1
1
1
1
1
1
1
1
1
1
1
1
1
1
1
1
1
1
1
1
1
1
1
1
1
1
1
1
1
1
1
1
1
1
1
1
1
1
1
1
1
1
1
1
1
1
1
1
1
1
1.772e-05
4.876e-05
0.0001933
0.0001195
2.927e-05
3.537e-05
0.0001199
0.0005982
0.0005602
0.0002188
8.555e-05
5.248e-05
2.19e-05
2.087e-05
8.405e-07
4e-08
1.475e-08
9.406e-09
6.579e-09
1.356e-08
2.759e-07
8.38e-06
0.0003103
0.002038
0.005875
0.002766
0.002983
0.002604
0.002667
0.002148
0.001939
0.001966
0.003614
0.004779
0.003917
0.003633
0.003553
0.001922
0.001039
0.0007944
0.0005928
0.0009093
0.001666
0.002495
0.00156
0.0009546
0.0002635
9.661e-05
3.819e-05
3.364e-05
3.367e-05
5.55e-05
0.0002561
0.001551
0.009966
0.1022
0.76
0.9566
0.9966
0.9997
1
1
1
1
1
1
1
1
1
1
1
1
1
1
1
1
1
1
1
1
1
1
1
1
1
1
1
1
1
1
1
1
1
1
1
1
1
1
1
1
1
1
1
1
1
1
1
1
1
1
1
1
1
1
1
1
1
1
1
1
1
1
1
1
1
1
1
1
1
1
1
1
1
1
1
1
1
1
1
1
1
1
1
1
1
1
1
1
1
1
1
1
1
1
1
1
1
1
1
1
4.023e-05
9.672e-05
0.0003575
0.0002353
5.822e-05
9.06e-05
0.0002261
0.001063
0.0009668
0.0003277
7.489e-05
4.855e-05
2.582e-05
1.961e-05
1.515e-06
2.06e-07
2.501e-07
6.378e-07
9.085e-07
2.047e-06
1.748e-05
0.0001434
0.001161
0.0035
0.006278
0.003454
0.004083
0.003408
0.003061
0.002021
0.002269
0.003415
0.007242
0.0108
0.007496
0.005184
0.00289
0.00135
0.0005958
0.0003856
0.0002456
0.000367
0.0005739
0.0008127
0.0009261
0.0009407
0.0004398
0.0002219
8.83e-05
4.684e-05
3.507e-05
0.0001891
0.002319
0.03284
0.5922
0.9508
0.9967
0.9998
1
1
1
1
1
1
1
1
1
1
1
1
1
1
1
1
1
1
1
1
1
1
1
1
1
1
1
1
1
1
1
1
1
1
1
1
1
1
1
1
1
1
1
1
1
1
1
1
1
1
1
1
1
1
1
1
1
1
1
1
1
1
1
1
1
1
1
1
1
1
1
1
1
1
1
1
1
1
1
1
1
1
1
1
1
1
1
1
1
1
1
1
1
1
1
1
1
1
1
1
1
1
0.0001411
0.0003129
0.0008498
0.0003729
0.0001027
0.0001402
0.0001928
0.001036
0.00156
0.0007015
0.0002045
0.0002087
0.0001254
8.733e-05
1.297e-05
2.832e-06
3.723e-06
1.342e-05
2.83e-05
0.0001106
0.0004068
0.0006962
0.001016
0.001003
0.000923
0.001048
0.002937
0.002527
0.002287
0.001318
0.001159
0.001417
0.003397
0.006505
0.006029
0.004722
0.002752
0.001514
0.0009582
0.0006919
0.0003818
0.0003256
0.0002818
0.0002605
0.0003798
0.0006393
0.0006786
0.0006614
0.0004595
0.0002897
0.0006342
0.005431
0.239
0.9072
0.9925
0.9994
1
1
1
1
1
1
1
1
1
1
1
1
1
1
1
1
1
1
1
1
1
1
1
1
1
1
1
1
1
1
1
1
1
1
1
1
1
1
1
1
1
1
1
1
1
1
1
1
1
1
1
1
1
1
1
1
1
1
1
1
1
1
1
1
1
1
1
1
1
1
1
1
1
1
1
1
1
1
1
1
1
1
1
1
1
1
1
1
1
1
1
1
1
1
1
1
1
1
1
1
1
1
1
1
0.0002488
0.000513
0.001236
0.0004854
0.0001466
8.669e-05
6.249e-05
0.0003788
0.001183
0.001253
0.0005423
0.0009232
0.0005938
0.0004045
0.0001202
4.497e-05
5.935e-05
0.0002084
0.0003198
0.000899
0.001684
0.001222
0.0007201
0.0004168
0.0003641
0.0006009
0.003145
0.002683
0.002486
0.001527
0.001164
0.0009391
0.001727
0.003577
0.00505
0.005904
0.004743
0.003363
0.002757
0.00185
0.0006604
0.0003237
0.0001747
0.0001191
0.0001769
0.0005014
0.0009357
0.001913
0.004559
0.009729
0.07065
0.7949
0.9868
0.9992
1
1
1
1
1
1
1
1
1
1
1
1
1
1
1
1
1
1
1
1
1
1
1
1
1
1
1
1
1
0.9999
0.9998
0.9995
0.9985
0.9968
0.9945
0.9922
0.993
0.9932
0.9918
0.994
0.9963
0.9974
0.9994
0.9998
0.9999
1
1
1
1
1
1
1
1
1
1
1
1
1
1
1
1
1
1
1
1
1
1
1
1
1
1
1
1
1
1
1
1
1
1
1
1
1
1
1
1
1
1
1
1
1
1
1
1
1
1
1
1
1
1
1
1
1
1
1
1
1
0.0004105
0.0007665
0.001842
0.00046
0.0001381
3.096e-05
1.623e-05
0.0001214
0.00122
0.003341
0.003019
0.005149
0.003006
0.001961
0.000853
0.0005392
0.0003822
0.0008788
0.0008624
0.001819
0.002386
0.001272
0.0006766
0.000335
0.0005428
0.001247
0.006569
0.005551
0.004243
0.002369
0.00159
0.0008072
0.0009399
0.001745
0.003488
0.006707
0.009421
0.007033
0.006422
0.004239
0.001448
0.0005952
0.0002326
0.000136
0.000227
0.0007245
0.001963
0.007167
0.0487
0.4559
0.9373
0.9971
0.9999
1
1
1
1
1
1
1
1
1
1
1
1
1
1
1
1
1
1
1
1
1
1
1
1
1
1
0.9997
0.9991
0.9967
0.9945
0.9882
0.9778
0.933
0.775
0.458
0.1476
0.05466
0.03547
0.02806
0.03946
0.08375
0.2043
0.3391
0.7983
0.9467
0.9868
0.9954
0.9988
0.9996
0.9999
1
1
1
1
1
1
1
1
1
1
1
1
1
1
1
1
1
1
1
1
1
1
1
1
1
1
1
1
1
1
1
1
1
1
1
1
1
1
1
1
1
1
1
1
1
1
1
1
1
1
1
1
1
1
1
1
1
0.0003644
0.0005583
0.001528
0.0005417
0.0003827
5.984e-05
2.74e-05
7.866e-05
0.0007705
0.001547
0.002421
0.004331
0.004094
0.002835
0.001433
0.001307
0.0009188
0.001539
0.002117
0.002847
0.002655
0.001516
0.0009968
0.000605
0.000658
0.001059
0.004148
0.004369
0.00498
0.003996
0.002801
0.001023
0.0008054
0.0009769
0.002247
0.005499
0.009638
0.006379
0.005614
0.003936
0.001596
0.0007193
0.0003511
0.0003749
0.000859
0.003761
0.01553
0.1293
0.8154
0.9824
0.9993
1
1
1
1
1
1
1
1
1
1
1
1
1
1
1
1
1
1
1
1
1
1
1
1
1
0.9997
0.9979
0.988
0.9543
0.8215
0.3454
0.1143
0.0467
0.01744
0.006319
0.00231
0.001484
0.001312
0.001104
0.0006912
0.0005008
0.0009372
0.001835
0.002702
0.003772
0.007638
0.01591
0.05854
0.21
0.591
0.8697
0.9727
0.9957
0.9992
0.9998
1
1
1
1
1
1
1
1
1
1
1
1
1
1
1
1
1
1
1
1
1
1
1
1
1
1
1
1
1
1
1
1
1
1
1
1
1
1
1
1
1
1
1
1
1
1
1
1
1
1
1
1
1
0.9999
0.0003582
0.0003792
0.00111
0.0006326
0.0008581
0.0001121
6.62e-05
7.2e-05
0.0003697
0.0007281
0.001597
0.002609
0.003836
0.003462
0.001395
0.001136
0.0009641
0.001814
0.004279
0.005321
0.004128
0.002654
0.002309
0.001806
0.001683
0.001596
0.003288
0.003553
0.00468
0.00503
0.003773
0.001181
0.0009408
0.0009063
0.001943
0.004529
0.00839
0.005498
0.004793
0.003146
0.001478
0.0009567
0.0007874
0.001192
0.004653
0.03178
0.4197
0.9301
0.9963
0.9998
1
1
1
1
1
1
1
1
1
1
1
1
1
1
1
1
1
1
1
1
1
1
1
0.9998
0.9974
0.9862
0.9303
0.6925
0.1654
0.03906
0.005861
0.002194
0.001424
0.00071
0.0002401
0.0001091
3.604e-05
3.271e-05
6.188e-05
7.887e-05
5.963e-05
5.101e-05
0.0001037
0.0001937
0.0002062
0.0002525
0.0002586
0.0003094
0.0008076
0.002051
0.003139
0.009085
0.04158
0.2566
0.7619
0.9365
0.9909
0.9985
0.9996
0.9998
1
1
1
1
1
1
1
1
1
1
1
1
1
1
1
1
1
1
1
1
1
1
1
1
1
1
1
1
1
1
1
1
1
1
1
1
1
1
1
1
1
1
1
1
1
0.9996
0.998
0.9927
0.9826
0.954
0.0004683
0.000284
0.0008963
0.0005145
0.0009492
0.000148
0.000107
5.55e-05
0.0001431
0.0003071
0.0008128
0.001683
0.004032
0.004713
0.001424
0.0009368
0.001108
0.002878
0.003483
0.002211
0.0009966
0.0009222
0.002121
0.004901
0.004536
0.002276
0.002112
0.002538
0.003908
0.004744
0.004327
0.002066
0.001864
0.001287
0.001506
0.001709
0.002044
0.001425
0.001956
0.001857
0.001352
0.00141
0.002247
0.007129
0.08039
0.7342
0.9774
0.9991
1
1
1
1
1
1
1
1
1
1
1
1
1
1
1
1
1
1
1
1
1
1
0.9999
0.9995
0.9936
0.9416
0.7087
0.1868
0.03187
0.005228
0.001069
0.0004115
0.0001137
7.711e-05
6.804e-05
4.897e-05
1.617e-05
1.181e-05
6.079e-06
7.671e-06
1.494e-05
2.433e-05
2.248e-05
2.11e-05
3.812e-05
6.204e-05
4.063e-05
3.027e-05
1.976e-05
2.075e-05
4.216e-05
6.758e-05
6.636e-05
0.0001259
0.0004161
0.002092
0.01107
0.06121
0.3293
0.7458
0.9493
0.9944
0.9998
1
1
1
1
1
1
1
1
1
1
1
1
1
1
1
1
1
1
1
1
1
1
1
1
1
1
1
1
1
1
1
1
1
1
1
1
1
1
1
0.9999
0.9994
0.9978
0.9914
0.9614
0.8212
0.5122
0.2184
0.1734
0.02399
0.0005389
0.0002515
0.001005
0.0005349
0.0008377
0.0001589
0.0001072
5.9e-05
0.0001737
0.0003221
0.0004701
0.0008423
0.002667
0.004296
0.001131
0.0006954
0.0006664
0.001662
0.001704
0.001384
0.0004207
0.0004042
0.000977
0.004774
0.00546
0.002978
0.002421
0.002664
0.004137
0.004745
0.00483
0.003735
0.004174
0.003019
0.002224
0.001182
0.0007455
0.0005127
0.0009637
0.001601
0.002682
0.00501
0.0218
0.1795
0.892
0.9922
0.9997
1
1
1
1
1
1
1
1
1
1
1
1
1
1
1
1
1
1
1
1
1
0.9998
0.9985
0.9807
0.8922
0.261
0.02954
0.006926
0.002788
0.000793
0.0002101
6.121e-05
2.709e-05
1.537e-05
2.012e-05
2.542e-05
3.458e-05
2.056e-05
2.464e-05
1.51e-05
2.244e-05
4.14e-05
7.891e-05
7.038e-05
6.587e-05
0.0001083
9.167e-05
4.457e-05
3.795e-05
2.123e-05
1.444e-05
1.614e-05
1.4e-05