/*--------------------------------*- C++ -*----------------------------------*\
| =========                 |                                                 |
| \\      /  F ield         | OpenFOAM: The Open Source CFD Toolbox           |
|  \\    /   O peration     | Version:  5.x                                   |
|   \\  /    A nd           | Web:      www.OpenFOAM.org                      |
|    \\/     M anipulation  |                                                 |
\*---------------------------------------------------------------------------*/
FoamFile
{
    version     2.0;
    format      ascii;
    class       volScalarField;
    location    "25";
    object      gamma;
}
// * * * * * * * * * * * * * * * * * * * * * * * * * * * * * * * * * * * * * //

dimensions      [0 0 0 0 0 0 0];

internalField   nonuniform List<scalar> 
80000
(
1
1
1
1
1
1
1
1
1
1
0.99999
0.99998
0.99995
0.99993
0.9999
0.99987
0.99984
0.99982
0.99979
0.99976
0.99974
0.9997
0.99966
0.99962
0.99957
0.99952
0.99946
0.99939
0.99932
0.99924
0.99916
0.99908
0.99899
0.99891
0.99882
0.99873
0.99863
0.99854
0.99844
0.99835
0.99825
0.99815
0.99805
0.99796
0.99786
0.99777
0.99767
0.99758
0.9975
0.99741
0.99733
0.99726
0.99718
0.99712
0.99705
0.997
0.99695
0.9969
0.99686
0.99682
0.99679
0.99676
0.99674
0.99672
0.99671
0.9967
0.99669
0.99669
0.99669
0.99669
0.99669
0.99669
0.99669
0.9967
0.99671
0.99671
0.99672
0.99673
0.99674
0.99675
0.99676
0.99676
0.99677
0.99679
0.99681
0.99685
0.9969
0.99697
0.99705
0.99714
0.99727
0.99744
0.99768
0.99775
0.99777
0.9978
0.99758
0.99731
0.99721
0.99671
0.99601
0.99529
0.99466
0.99415
0.99429
0.99427
0.99419
0.99409
0.994
0.99393
0.99388
0.99382
0.99377
0.99372
0.99368
0.99363
0.99359
0.99355
0.99352
0.99349
0.99345
0.99342
0.9934
0.99337
0.99334
0.99332
0.9933
0.99328
0.99326
0.99325
0.99323
0.99322
0.99321
0.9932
0.99319
0.99319
0.99319
0.99319
0.9932
0.9932
0.99321
0.99323
0.99324
0.99326
0.99329
0.99331
0.99334
0.99337
0.9934
0.99344
0.99347
0.99351
0.99355
0.9936
0.99364
0.99368
0.99373
0.99377
0.99382
0.99386
0.99391
0.99395
0.994
0.99404
0.99408
0.99412
0.99416
0.99419
0.99423
0.99427
0.9943
0.99433
0.99436
0.99439
0.99441
0.99444
0.99446
0.99448
0.9945
0.99451
0.99452
0.99453
0.99454
0.99454
0.99454
0.99454
0.99454
0.99453
0.99452
0.99451
0.99449
0.99447
0.99445
0.99443
0.99441
0.99438
0.99434
0.99431
0.99427
0.99423
0.99418
0.99413
0.99408
0.99402
0.99396
0.99389
0.99382
0.99375
0.99367
0.99359
0.9935
0.99341
0.99332
0.99322
0.99312
0.99301
0.9929
0.99279
0.99267
0.99255
0.99243
0.9923
0.99218
0.99205
0.99192
0.99179
0.99166
0.99153
0.99141
0.99129
0.99117
0.99105
0.99094
0.99083
0.99073
0.99062
0.99052
0.99041
0.99029
0.99016
0.99001
0.98985
0.98965
0.98941
0.98913
0.98879
0.98837
0.98785
0.98721
0.98643
0.98551
0.98452
0.98255
0.97844
0.97013
0.95777
0.9416
0.92487
0.90816
0.88746
0.85402
0.80026
0.71613
0.58268
0.37807
0.20614
0.11415
0.066046
0.041517
0.029082
0.022942
0.020102
0.018949
0.018452
0.01772
0.016129
0.01489
0.015687
0.020558
0.030248
0.046875
0.061747
0.070686
0.068157
0.051497
0.035246
0.022775
0.017074
0.015305
0.016563
0.016894
0.016798
0.016549
0.016253
0.015946
0.015715
0.015565
0.015452
0.015368
0.015238
0.015076
0.014887
0.014692
0.014528
0.014395
0.014283
0.014194
0.014092
0.013932
0.013734
0.013549
0.013553
0.014084
0.015673
0.01672
0.012728
0.0084387
0.0050801
0.0036447
0.0032618
0.0037208
0.003827
0.0037815
0.0037181
0.0036742
0.0036457
0.00362
0.0035939
0.0035675
0.0035415
0.003516
0.003491
0.0034664
0.0034423
0.0034185
0.0033951
0.0033721
0.0033494
0.0033271
0.0033052
0.0032836
0.0032624
0.0032415
0.003221
0.003201
0.0031813
0.0031621
0.0031433
0.003125
0.0031072
0.00309
0.0030733
0.0030571
0.0030416
0.0030266
0.0030123
0.0029987
0.0029857
0.0029734
0.0029619
0.002951
0.0029409
0.0029315
0.0029228
0.0029148
0.0029075
0.0029009
0.002895
0.0028897
0.0028851
0.002881
0.0028775
0.0028746
0.0028721
0.0028701
0.0028684
0.0028672
0.0028662
0.0028656
0.0028651
0.0028649
0.0028648
0.0028648
0.0028648
0.0028649
0.0028651
0.0028653
0.0028657
0.0028658
0.0028644
0.0028604
0.0028598
0.0028765
0.002921
0.0029381
0.0027136
0.0025052
0.0026546
0.0028585
0.0033414
1
1
1
1
1
1
1
1
1
1
0.99999
0.99999
0.99997
0.99996
0.99994
0.99992
0.99991
0.99989
0.99987
0.99984
0.99982
0.99979
0.99976
0.99972
0.99968
0.99963
0.99958
0.99952
0.99946
0.99939
0.99932
0.99925
0.99918
0.9991
0.99902
0.99894
0.99886
0.99878
0.99869
0.99861
0.99852
0.99843
0.99835
0.99826
0.99818
0.99809
0.99801
0.99793
0.99785
0.99778
0.99771
0.99764
0.99757
0.99751
0.99746
0.99741
0.99736
0.99732
0.99728
0.99725
0.99722
0.99719
0.99717
0.99715
0.99714
0.99713
0.99712
0.99712
0.99712
0.99712
0.99712
0.99712
0.99712
0.99712
0.99713
0.99713
0.99714
0.99714
0.99715
0.99716
0.99718
0.9972
0.99722
0.99727
0.99732
0.9974
0.99749
0.9976
0.99771
0.99783
0.99783
0.99779
0.99776
0.99756
0.99736
0.9973
0.99699
0.99662
0.99636
0.99593
0.99545
0.99524
0.99496
0.99473
0.99483
0.99481
0.99474
0.99466
0.9946
0.99454
0.9945
0.99445
0.99441
0.99437
0.99433
0.99429
0.99426
0.99423
0.99419
0.99417
0.99414
0.99411
0.99409
0.99407
0.99404
0.99402
0.99401
0.99399
0.99397
0.99396
0.99395
0.99394
0.99393
0.99392
0.99391
0.99391
0.99391
0.99391
0.99392
0.99392
0.99393
0.99394
0.99396
0.99397
0.99399
0.99402
0.99404
0.99407
0.99409
0.99412
0.99416
0.99419
0.99423
0.99426
0.9943
0.99434
0.99438
0.99442
0.99446
0.9945
0.99453
0.99457
0.99461
0.99465
0.99468
0.99472
0.99475
0.99478
0.99481
0.99484
0.99487
0.9949
0.99492
0.99495
0.99497
0.99499
0.99501
0.99503
0.99504
0.99505
0.99506
0.99507
0.99508
0.99508
0.99508
0.99508
0.99507
0.99507
0.99506
0.99505
0.99503
0.99501
0.995
0.99497
0.99495
0.99492
0.9949
0.99486
0.99483
0.99479
0.99475
0.9947
0.99465
0.9946
0.99454
0.99448
0.99442
0.99435
0.99428
0.99421
0.99413
0.99405
0.99396
0.99387
0.99378
0.99368
0.99358
0.99347
0.99337
0.99326
0.99314
0.99302
0.99291
0.99278
0.99266
0.99254
0.99242
0.99229
0.99217
0.99205
0.99194
0.99182
0.99171
0.9916
0.99149
0.99138
0.99127
0.99115
0.99102
0.99089
0.99073
0.99056
0.99036
0.99012
0.98985
0.98952
0.98912
0.98864
0.98805
0.98735
0.98655
0.9857
0.9843
0.98157
0.97628
0.96785
0.95594
0.94152
0.92467
0.90556
0.87972
0.84705
0.80087
0.73317
0.6259
0.45721
0.25911
0.14317
0.081654
0.04999
0.033739
0.025212
0.020672
0.018008
0.015904
0.014591
0.014774
0.017467
0.024455
0.037219
0.051187
0.062218
0.064603
0.056401
0.040517
0.027325
0.018447
0.014929
0.014139
0.015152
0.015389
0.015262
0.014998
0.014719
0.014468
0.014286
0.014161
0.014064
0.013939
0.01379
0.013625
0.013447
0.013274
0.013135
0.013018
0.012923
0.01282
0.012701
0.01253
0.012342
0.012206
0.012337
0.013071
0.013607
0.01264
0.0089803
0.0058303
0.0037212
0.0029816
0.0028826
0.0032351
0.0033034
0.0032581
0.0032034
0.003166
0.0031411
0.0031185
0.0030955
0.0030724
0.0030497
0.0030274
0.0030056
0.0029842
0.0029632
0.0029426
0.0029222
0.0029022
0.0028825
0.0028631
0.002844
0.0028252
0.0028068
0.0027886
0.0027708
0.0027533
0.0027361
0.0027194
0.002703
0.002687
0.0026715
0.0026564
0.0026417
0.0026276
0.0026139
0.0026008
0.0025882
0.0025762
0.0025647
0.0025539
0.0025436
0.002534
0.0025249
0.0025165
0.0025087
0.0025015
0.0024949
0.002489
0.0024835
0.0024787
0.0024744
0.0024706
0.0024672
0.0024644
0.0024619
0.0024599
0.0024582
0.0024568
0.0024558
0.0024549
0.0024543
0.0024539
0.0024536
0.0024534
0.0024533
0.0024533
0.0024533
0.0024535
0.0024537
0.0024538
0.0024525
0.002449
0.0024485
0.0024636
0.0025035
0.0025184
0.0023163
0.0021313
0.0022696
0.0024458
0.0028585
0.99999
1
1
1
1
1
1
1
1
1
1
0.99999
0.99998
0.99997
0.99996
0.99994
0.99993
0.99991
0.99988
0.99986
0.99983
0.9998
0.99977
0.99973
0.99969
0.99965
0.9996
0.99955
0.99949
0.99942
0.99936
0.99929
0.99922
0.99915
0.99907
0.999
0.99892
0.99884
0.99876
0.99868
0.99859
0.99851
0.99843
0.99835
0.99827
0.99819
0.99811
0.99803
0.99796
0.99788
0.99781
0.99775
0.99769
0.99763
0.99757
0.99752
0.99748
0.99744
0.9974
0.99737
0.99734
0.99731
0.99729
0.99728
0.99726
0.99725
0.99724
0.99724
0.99723
0.99723
0.99723
0.99723
0.99723
0.99723
0.99723
0.99724
0.99724
0.99726
0.99727
0.9973
0.99733
0.99738
0.99745
0.99753
0.99764
0.99776
0.99779
0.99775
0.99768
0.99765
0.99749
0.99738
0.99726
0.99693
0.99657
0.99631
0.99591
0.99551
0.99544
0.9952
0.99493
0.99495
0.99487
0.99481
0.99488
0.99486
0.99481
0.99475
0.9947
0.99466
0.99462
0.99458
0.99454
0.99451
0.99448
0.99444
0.99441
0.99438
0.99436
0.99433
0.99431
0.99428
0.99426
0.99424
0.99422
0.99421
0.99419
0.99417
0.99416
0.99415
0.99414
0.99413
0.99412
0.99411
0.99411
0.9941
0.9941
0.9941
0.99411
0.99411
0.99412
0.99413
0.99415
0.99416
0.99418
0.9942
0.99422
0.99424
0.99427
0.9943
0.99432
0.99436
0.99439
0.99442
0.99445
0.99449
0.99452
0.99456
0.99459
0.99463
0.99467
0.9947
0.99473
0.99477
0.9948
0.99483
0.99486
0.99489
0.99492
0.99494
0.99497
0.99499
0.99502
0.99504
0.99506
0.99508
0.99509
0.99511
0.99512
0.99513
0.99514
0.99515
0.99515
0.99515
0.99515
0.99515
0.99515
0.99514
0.99513
0.99512
0.9951
0.99509
0.99507
0.99505
0.99502
0.995
0.99497
0.99494
0.9949
0.99487
0.99482
0.99478
0.99473
0.99468
0.99463
0.99457
0.99451
0.99444
0.99438
0.9943
0.99423
0.99415
0.99406
0.99398
0.99389
0.99379
0.99369
0.99359
0.99348
0.99337
0.99326
0.99315
0.99303
0.99291
0.99278
0.99266
0.99253
0.9924
0.99228
0.99215
0.99202
0.9919
0.99178
0.99165
0.99153
0.9914
0.99128
0.99114
0.991
0.99084
0.99067
0.99048
0.99026
0.99001
0.98972
0.98939
0.98899
0.98853
0.98799
0.98736
0.98665
0.98592
0.98496
0.98323
0.9799
0.97512
0.96733
0.95814
0.94728
0.93695
0.92546
0.91026
0.88447
0.8432
0.77964
0.68745
0.56406
0.37602
0.21138
0.11709
0.06879
0.043819
0.030558
0.02283
0.018467
0.016876
0.018015
0.022689
0.032726
0.045172
0.056671
0.061416
0.056285
0.044514
0.030867
0.020701
0.015841
0.013986
0.013877
0.01464
0.014769
0.014582
0.014309
0.014051
0.013838
0.013685
0.013574
0.013445
0.013297
0.013135
0.012964
0.012799
0.012645
0.012521
0.01241
0.012312
0.012197
0.012059
0.011874
0.011693
0.011634
0.011949
0.012988
0.012533
0.010305
0.006847
0.0042038
0.0029673
0.0026952
0.0027786
0.003038
0.0030706
0.0030232
0.0029746
0.0029417
0.0029187
0.0028975
0.002876
0.0028545
0.0028335
0.0028129
0.0027927
0.002773
0.0027536
0.0027346
0.0027158
0.0026974
0.0026792
0.0026613
0.0026437
0.0026264
0.0026094
0.0025926
0.0025762
0.00256
0.0025442
0.0025287
0.0025135
0.0024987
0.0024843
0.0024703
0.0024567
0.0024435
0.0024308
0.0024186
0.0024068
0.0023955
0.0023848
0.0023746
0.0023649
0.0023558
0.0023472
0.0023392
0.0023317
0.0023248
0.0023185
0.0023126
0.0023073
0.0023025
0.0022982
0.0022944
0.002291
0.002288
0.0022854
0.0022832
0.0022814
0.0022798
0.0022785
0.0022774
0.0022766
0.0022759
0.0022754
0.0022751
0.0022748
0.0022746
0.0022745
0.0022745
0.0022747
0.0022747
0.0022735
0.0022701
0.0022696
0.002284
0.0023219
0.0023361
0.0021444
0.0019684
0.0021014
0.0022696
0.0026546
0.99997
0.99998
0.99999
1
1
1
1
1
1
1
1
1
0.99999
0.99998
0.99997
0.99995
0.99993
0.99991
0.99988
0.99986
0.99983
0.99979
0.99976
0.99972
0.99968
0.99963
0.99959
0.99953
0.99947
0.99941
0.99935
0.99928
0.99921
0.99914
0.99907
0.99899
0.99891
0.99884
0.99876
0.99868
0.9986
0.99852
0.99844
0.99836
0.99828
0.9982
0.99812
0.99805
0.99797
0.9979
0.99783
0.99777
0.99771
0.99765
0.99759
0.99754
0.9975
0.99746
0.99742
0.99738
0.99735
0.99733
0.99731
0.99729
0.99727
0.99726
0.99725
0.99724
0.99723
0.99723
0.99723
0.99722
0.99723
0.99723
0.99724
0.99725
0.99727
0.9973
0.99734
0.9974
0.99748
0.99759
0.99771
0.99774
0.99773
0.99771
0.99753
0.9973
0.99714
0.99702
0.99673
0.99653
0.99617
0.99565
0.99511
0.9949
0.99447
0.99403
0.99397
0.99392
0.99401
0.99433
0.99455
0.99466
0.9947
0.99469
0.99465
0.99462
0.99459
0.99456
0.99453
0.99451
0.99448
0.99445
0.99442
0.9944
0.99437
0.99435
0.99433
0.9943
0.99428
0.99426
0.99425
0.99423
0.99421
0.9942
0.99418
0.99417
0.99416
0.99415
0.99414
0.99413
0.99412
0.99412
0.99411
0.99411
0.99411
0.99411
0.99411
0.99412
0.99413
0.99414
0.99415
0.99416
0.99418
0.99419
0.99421
0.99423
0.99425
0.99428
0.9943
0.99433
0.99436
0.99439
0.99442
0.99445
0.99448
0.99451
0.99454
0.99457
0.9946
0.99463
0.99466
0.99469
0.99472
0.99475
0.99478
0.9948
0.99483
0.99485
0.99487
0.99489
0.99491
0.99493
0.99495
0.99497
0.99498
0.99499
0.995
0.99501
0.99502
0.99503
0.99503
0.99503
0.99503
0.99502
0.99502
0.99501
0.995
0.99499
0.99497
0.99495
0.99494
0.99491
0.99489
0.99487
0.99484
0.99481
0.99477
0.99473
0.99469
0.99465
0.9946
0.99455
0.9945
0.99444
0.99438
0.99432
0.99425
0.99418
0.99411
0.99403
0.99394
0.99386
0.99377
0.99367
0.99357
0.99347
0.99336
0.99325
0.99314
0.99302
0.99289
0.99277
0.99264
0.9925
0.99236
0.99223
0.99208
0.99194
0.9918
0.99165
0.99151
0.99136
0.99121
0.99106
0.9909
0.99073
0.99056
0.99037
0.99016
0.98994
0.98969
0.98942
0.98911
0.98876
0.98838
0.98794
0.98746
0.98692
0.98636
0.98581
0.98536
0.98471
0.98323
0.98122
0.97774
0.97336
0.96772
0.96395
0.96101
0.95787
0.95073
0.93902
0.91766
0.88328
0.83543
0.75585
0.618
0.39578
0.20365
0.11152
0.066815
0.043614
0.031869
0.027581
0.028974
0.036827
0.048089
0.058915
0.062601
0.056241
0.043881
0.031199
0.021091
0.016028
0.013894
0.013482
0.013941
0.014372
0.014331
0.014075
0.013796
0.013558
0.013384
0.013265
0.013141
0.012986
0.012815
0.012635
0.012465
0.012317
0.012182
0.012071
0.011969
0.011852
0.01172
0.011557
0.011354
0.011188
0.011248
0.011843
0.01238
0.010455
0.0073467
0.0044318
0.0029781
0.0024216
0.0025275
0.0027521
0.0028958
0.0028857
0.002836
0.0027943
0.0027661
0.0027448
0.0027246
0.0027043
0.0026841
0.0026643
0.002645
0.0026262
0.0026078
0.0025898
0.002572
0.0025546
0.0025374
0.0025205
0.0025039
0.0024876
0.0024715
0.0024556
0.0024401
0.0024247
0.0024097
0.0023949
0.0023805
0.0023663
0.0023525
0.002339
0.0023258
0.0023131
0.0023007
0.0022887
0.0022771
0.002266
0.0022553
0.0022451
0.0022353
0.002226
0.0022172
0.002209
0.0022012
0.0021939
0.0021871
0.0021808
0.002175
0.0021696
0.0021647
0.0021603
0.0021563
0.0021527
0.0021495
0.0021467
0.0021442
0.002142
0.0021401
0.0021385
0.0021371
0.0021359
0.002135
0.0021342
0.0021336
0.0021331
0.0021327
0.0021324
0.0021322
0.0021323
0.0021322
0.002131
0.0021277
0.0021273
0.0021411
0.0021774
0.0021909
0.0020072
0.0018389
0.0019684
0.0021313
0.0025052
0.99992
0.99995
0.99998
1
1
1
1
1
1
0.99999
0.99999
0.99998
0.99997
0.99995
0.99992
0.9999
0.99987
0.99983
0.99979
0.99975
0.9997
0.99966
0.99961
0.99956
0.99951
0.99946
0.9994
0.99934
0.99927
0.9992
0.99912
0.99905
0.99897
0.99889
0.99881
0.99872
0.99864
0.99855
0.99846
0.99837
0.99828
0.99819
0.9981
0.99801
0.99792
0.99783
0.99775
0.99766
0.99758
0.9975
0.99742
0.99735
0.99728
0.99721
0.99715
0.99709
0.99704
0.99699
0.99695
0.99691
0.99687
0.99684
0.99681
0.99679
0.99676
0.99675
0.99673
0.99672
0.99671
0.99671
0.99671
0.99672
0.99674
0.99677
0.99681
0.99685
0.99691
0.99699
0.99708
0.99722
0.99724
0.99721
0.99719
0.99698
0.99676
0.99664
0.99625
0.99578
0.99533
0.99506
0.99458
0.99433
0.99398
0.9934
0.99281
0.99265
0.9925
0.99253
0.99289
0.99317
0.99338
0.99353
0.99363
0.99368
0.99369
0.99368
0.99367
0.99366
0.99364
0.99363
0.99361
0.99359
0.99357
0.99355
0.99353
0.99351
0.99348
0.99346
0.99345
0.99343
0.99341
0.99339
0.99338
0.99336
0.99335
0.99333
0.99332
0.99331
0.9933
0.99329
0.99328
0.99327
0.99327
0.99326
0.99326
0.99326
0.99326
0.99326
0.99326
0.99327
0.99327
0.99328
0.99329
0.99331
0.99332
0.99334
0.99335
0.99337
0.99339
0.99342
0.99344
0.99347
0.99349
0.99352
0.99355
0.99358
0.99361
0.99364
0.99367
0.9937
0.99373
0.99376
0.99378
0.99381
0.99384
0.99386
0.99389
0.99391
0.99393
0.99396
0.99398
0.994
0.99402
0.99403
0.99405
0.99407
0.99408
0.99409
0.9941
0.99411
0.99411
0.99412
0.99412
0.99412
0.99411
0.99411
0.9941
0.99409
0.99408
0.99406
0.99405
0.99403
0.99401
0.99399
0.99396
0.99393
0.9939
0.99387
0.99383
0.99379
0.99375
0.9937
0.99365
0.99359
0.99354
0.99347
0.99341
0.99334
0.99327
0.99319
0.99311
0.99302
0.99293
0.99283
0.99273
0.99263
0.99252
0.99241
0.99229
0.99216
0.99203
0.99189
0.99175
0.9916
0.99144
0.99128
0.99112
0.99095
0.99077
0.99059
0.99041
0.99022
0.99003
0.98984
0.98964
0.98943
0.98922
0.989
0.98877
0.98853
0.98827
0.98799
0.98769
0.98736
0.98702
0.98665
0.98626
0.98585
0.98542
0.98498
0.98456
0.98421
0.98397
0.98394
0.98369
0.9834
0.98232
0.98087
0.97904
0.97835
0.97868
0.97865
0.97704
0.97335
0.96623
0.95583
0.94345
0.92266
0.87872
0.80145
0.67946
0.49367
0.27398
0.1602
0.099665
0.070974
0.066165
0.069997
0.075682
0.073774
0.062005
0.04625
0.03226
0.021629
0.016431
0.014348
0.014047
0.014673
0.01537
0.015478
0.015274
0.014944
0.014652
0.014428
0.014279
0.01414
0.013991
0.013793
0.013591
0.013403
0.013244
0.013103
0.012975
0.012859
0.012728
0.012588
0.012436
0.012246
0.012024
0.011874
0.012093
0.013072
0.012565
0.0093025
0.0058456
0.0034996
0.0025383
0.0024569
0.0028503
0.0031346
0.0031743
0.0031238
0.0030682
0.0030291
0.0030021
0.0029796
0.0029578
0.0029359
0.0029144
0.0028934
0.002873
0.0028531
0.0028336
0.0028144
0.0027957
0.0027773
0.0027592
0.0027414
0.0027238
0.0027066
0.0026896
0.0026729
0.0026565
0.0026404
0.0026245
0.0026089
0.0025937
0.0025787
0.002564
0.0025498
0.0025358
0.0025222
0.0025091
0.0024963
0.0024839
0.002472
0.0024606
0.0024496
0.002439
0.002429
0.0024195
0.0024104
0.0024019
0.0023939
0.0023863
0.0023793
0.0023728
0.0023667
0.0023611
0.002356
0.0023513
0.0023471
0.0023432
0.0023398
0.0023367
0.0023339
0.0023315
0.0023293
0.0023274
0.0023258
0.0023244
0.0023233
0.0023223
0.0023214
0.0023208
0.0023202
0.0023199
0.0023198
0.0023196
0.0023182
0.0023147
0.0023142
0.0023289
0.0023675
0.0023818
0.0021867
0.0020072
0.0021444
0.0023163
0.0027136
0.99984
0.9999
0.99994
0.99999
0.99999
0.99998
0.99998
0.99998
0.99998
0.99997
0.99996
0.99994
0.99992
0.99989
0.99986
0.99982
0.99977
0.99973
0.99968
0.99962
0.99956
0.9995
0.99944
0.99938
0.99931
0.99924
0.99917
0.99909
0.99901
0.99893
0.99885
0.99876
0.99867
0.99858
0.99849
0.99839
0.9983
0.9982
0.99809
0.99799
0.99789
0.99779
0.99768
0.99758
0.99748
0.99738
0.99728
0.99718
0.99708
0.99699
0.9969
0.99682
0.99674
0.99666
0.99659
0.99652
0.99646
0.9964
0.99635
0.9963
0.99626
0.99622
0.99618
0.99615
0.99612
0.9961
0.99608
0.99607
0.99607
0.99609
0.99612
0.99617
0.99624
0.99634
0.99645
0.99657
0.9967
0.99669
0.99661
0.99655
0.99629
0.99601
0.99586
0.99541
0.9949
0.99447
0.99382
0.99308
0.99269
0.99234
0.99184
0.99166
0.99137
0.99117
0.9912
0.9916
0.99192
0.99214
0.99229
0.99238
0.99244
0.99246
0.99247
0.99248
0.99248
0.99249
0.99249
0.99249
0.9925
0.99249
0.99249
0.99248
0.99247
0.99245
0.99244
0.99243
0.99241
0.9924
0.99238
0.99237
0.99235
0.99234
0.99233
0.99232
0.99231
0.9923
0.99229
0.99228
0.99227
0.99226
0.99226
0.99225
0.99225
0.99224
0.99224
0.99224
0.99224
0.99224
0.99225
0.99225
0.99226
0.99227
0.99228
0.99229
0.9923
0.99232
0.99234
0.99235
0.99237
0.99239
0.99242
0.99244
0.99246
0.99249
0.99252
0.99254
0.99257
0.9926
0.99263
0.99266
0.99268
0.99271
0.99274
0.99276
0.99279
0.99281
0.99283
0.99285
0.99287
0.99289
0.99291
0.99293
0.99295
0.99296
0.99298
0.99299
0.993
0.99301
0.99302
0.99303
0.99303
0.99303
0.99303
0.99303
0.99302
0.99302
0.99301
0.993
0.99298
0.99297
0.99295
0.99293
0.99291
0.99288
0.99285
0.99282
0.99279
0.99275
0.99271
0.99267
0.99262
0.99257
0.99252
0.99246
0.9924
0.99233
0.99226
0.99219
0.99211
0.99202
0.99193
0.99184
0.99174
0.99163
0.99153
0.99141
0.99129
0.99116
0.99102
0.99088
0.99073
0.99057
0.9904
0.99023
0.99004
0.98985
0.98965
0.98944
0.98922
0.98899
0.98876
0.98852
0.98827
0.98802
0.98776
0.9875
0.98723
0.98694
0.98665
0.98634
0.98602
0.98569
0.98534
0.98498
0.98461
0.98424
0.98388
0.98352
0.98319
0.98289
0.98265
0.98251
0.98249
0.98266
0.98306
0.9837
0.98406
0.98426
0.98424
0.98456
0.98552
0.98612
0.98606
0.98563
0.98364
0.9805
0.97607
0.97064
0.9585
0.94002
0.90815
0.85453
0.76189
0.62212
0.40985
0.24395
0.17591
0.14437
0.11976
0.088228
0.058598
0.037208
0.023361
0.017014
0.014768
0.014655
0.015547
0.01647
0.016707
0.016583
0.016289
0.015935
0.015663
0.015462
0.01531
0.015149
0.014973
0.014736
0.01451
0.014326
0.01417
0.014034
0.013913
0.01378
0.013625
0.013466
0.013299
0.013088
0.012849
0.012724
0.013104
0.01447
0.012468
0.008294
0.0048343
0.0031817
0.0025431
0.0028887
0.0033987
0.003533
0.0034843
0.0034019
0.0033412
0.0033025
0.0032741
0.0032488
0.0032243
0.0032002
0.0031768
0.003154
0.0031318
0.0031102
0.003089
0.0030683
0.003048
0.003028
0.0030084
0.0029892
0.0029703
0.0029517
0.0029334
0.0029153
0.0028976
0.0028802
0.0028631
0.0028463
0.0028298
0.0028137
0.0027979
0.0027824
0.0027674
0.0027527
0.0027384
0.0027246
0.0027111
0.0026982
0.0026857
0.0026737
0.0026621
0.0026511
0.0026406
0.0026306
0.0026212
0.0026122
0.0026038
0.0025959
0.0025885
0.0025816
0.0025752
0.0025693
0.0025638
0.0025588
0.0025543
0.0025501
0.0025463
0.0025429
0.0025398
0.0025371
0.0025347
0.0025325
0.0025307
0.0025291
0.0025277
0.0025265
0.0025255
0.0025247
0.0025241
0.0025238
0.0025234
0.0025218
0.002518
0.0025174
0.002533
0.002574
0.0025892
0.0023818
0.0021909
0.0023361
0.0025184
0.0029381
0.99972
0.99983
0.99989
0.99995
0.99995
0.99994
0.99993
0.99993
0.99992
0.99991
0.99989
0.99986
0.99983
0.9998
0.99976
0.99971
0.99966
0.99961
0.99956
0.9995
0.99944
0.99938
0.99932
0.99925
0.99918
0.9991
0.99903
0.99895
0.99887
0.99878
0.99869
0.9986
0.99851
0.99841
0.99831
0.99821
0.99811
0.998
0.99789
0.99778
0.99767
0.99756
0.99745
0.99734
0.99723
0.99712
0.99701
0.99691
0.9968
0.9967
0.99661
0.99651
0.99643
0.99634
0.99626
0.99619
0.99612
0.99605
0.99599
0.99593
0.99588
0.99584
0.9958
0.99577
0.99575
0.99574
0.99574
0.99576
0.99579
0.99585
0.99595
0.99608
0.99625
0.99627
0.9962
0.99609
0.99603
0.99579
0.9956
0.99538
0.99486
0.99427
0.99381
0.9931
0.99236
0.99203
0.99138
0.99069
0.99044
0.99018
0.99012
0.99048
0.9908
0.99109
0.99134
0.99153
0.99166
0.99174
0.99177
0.99177
0.99177
0.99175
0.99174
0.99174
0.99175
0.99176
0.99178
0.9918
0.99181
0.99182
0.99182
0.99182
0.99182
0.99181
0.99181
0.9918
0.9918
0.99179
0.99178
0.99178
0.99177
0.99176
0.99176
0.99175
0.99174
0.99174
0.99173
0.99173
0.99172
0.99172
0.99172
0.99172
0.99171
0.99171
0.99171
0.99171
0.99171
0.99172
0.99172
0.99173
0.99174
0.99174
0.99175
0.99177
0.99178
0.99179
0.99181
0.99182
0.99184
0.99186
0.99188
0.9919
0.99192
0.99194
0.99197
0.99199
0.99202
0.99204
0.99207
0.99209
0.99211
0.99214
0.99216
0.99218
0.9922
0.99222
0.99224
0.99226
0.99227
0.99229
0.99231
0.99232
0.99233
0.99235
0.99236
0.99237
0.99238
0.99238
0.99239
0.99239
0.9924
0.9924
0.9924
0.99239
0.99239
0.99238
0.99237
0.99235
0.99234
0.99232
0.99231
0.99229
0.99226
0.99224
0.99221
0.99218
0.99215
0.99211
0.99207
0.99203
0.99199
0.99194
0.99188
0.99182
0.99176
0.9917
0.99162
0.99155
0.99147
0.99138
0.99129
0.99119
0.99109
0.99099
0.99087
0.99075
0.99063
0.99049
0.99034
0.99019
0.99003
0.98985
0.98967
0.98948
0.98927
0.98905
0.98882
0.98858
0.98833
0.98806
0.98779
0.9875
0.98721
0.98691
0.9866
0.98629
0.98596
0.98563
0.98529
0.98495
0.98459
0.98424
0.98387
0.98352
0.98317
0.98284
0.98253
0.98227
0.98205
0.98191
0.98184
0.98187
0.98201
0.9823
0.98274
0.98335
0.98409
0.98494
0.98587
0.98687
0.98801
0.98871
0.98906
0.98928
0.98868
0.9877
0.9867
0.98568
0.98289
0.97824
0.96788
0.94981
0.91776
0.86242
0.77649
0.65206
0.49389
0.32711
0.20859
0.12155
0.067321
0.035836
0.021615
0.016079
0.014697
0.015201
0.016117
0.016557
0.016644
0.016549
0.016343
0.016081
0.01588
0.0157
0.015549
0.015385
0.015207
0.014967
0.014749
0.014567
0.014414
0.014286
0.014149
0.013999
0.01383
0.01367
0.013507
0.013298
0.013059
0.012962
0.013432
0.014984
0.011585
0.0074189
0.0042789
0.0029306
0.0024764
0.0031145
0.0035291
0.0035933
0.0035174
0.0034308
0.0033711
0.0033306
0.0032981
0.0032686
0.0032409
0.0032149
0.0031902
0.0031665
0.0031435
0.0031211
0.0030992
0.0030777
0.0030566
0.003036
0.0030157
0.0029958
0.0029763
0.0029571
0.0029383
0.0029197
0.0029015
0.0028836
0.002866
0.0028487
0.0028318
0.0028152
0.002799
0.0027831
0.0027676
0.0027525
0.0027378
0.0027236
0.0027097
0.0026964
0.0026835
0.002671
0.0026591
0.0026477
0.0026367
0.0026263
0.0026164
0.0026071
0.0025982
0.0025899
0.002582
0.0025747
0.0025678
0.0025615
0.0025556
0.0025501
0.0025451
0.0025405
0.0025363
0.0025324
0.002529
0.0025258
0.002523
0.0025205
0.0025183
0.0025163
0.0025146
0.0025131
0.0025119
0.0025108
0.00251
0.0025096
0.002509
0.0025073
0.0025033
0.0025026
0.002518
0.0025588
0.002574
0.0023675
0.0021774
0.0023219
0.0025035
0.002921
0.99958
0.99974
0.99982
0.9999
0.99988
0.99985
0.99985
0.99984
0.99983
0.99981
0.99978
0.99975
0.99971
0.99968
0.99963
0.99959
0.99954
0.99949
0.99944
0.99938
0.99932
0.99926
0.99919
0.99912
0.99905
0.99897
0.9989
0.99881
0.99873
0.99864
0.99855
0.99845
0.99835
0.99825
0.99815
0.99804
0.99793
0.99782
0.9977
0.99759
0.99747
0.99735
0.99723
0.99712
0.997
0.99688
0.99676
0.99665
0.99654
0.99643
0.99632
0.99622
0.99612
0.99603
0.99594
0.99585
0.99577
0.9957
0.99563
0.99557
0.99552
0.99549
0.99547
0.99547
0.99549
0.99552
0.99556
0.99563
0.99573
0.99588
0.99589
0.99584
0.99579
0.99548
0.99511
0.99483
0.99462
0.99414
0.99381
0.99321
0.9924
0.99157
0.99122
0.99055
0.98984
0.98965
0.98948
0.9895
0.98991
0.99022
0.99044
0.99062
0.99077
0.99089
0.99099
0.99105
0.99109
0.99109
0.99108
0.99107
0.99105
0.99105
0.99105
0.99105
0.99107
0.99109
0.99112
0.99114
0.99116
0.99117
0.99118
0.99119
0.9912
0.99121
0.99121
0.99122
0.99122
0.99122
0.99122
0.99122
0.99122
0.99122
0.99122
0.99122
0.99122
0.99122
0.99122
0.99122
0.99123
0.99123
0.99123
0.99123
0.99123
0.99123
0.99123
0.99124
0.99124
0.99124
0.99125
0.99126
0.99127
0.99127
0.99128
0.9913
0.99131
0.99132
0.99133
0.99135
0.99136
0.99137
0.99139
0.99141
0.99143
0.99145
0.99146
0.99148
0.9915
0.99152
0.99154
0.99156
0.99158
0.9916
0.99162
0.99164
0.99165
0.99167
0.99168
0.99169
0.99171
0.99172
0.99173
0.99174
0.99175
0.99176
0.99176
0.99177
0.99177
0.99178
0.99178
0.99178
0.99178
0.99178
0.99178
0.99178
0.99177
0.99176
0.99175
0.99174
0.99172
0.99171
0.99169
0.99168
0.99165
0.99163
0.99161
0.99158
0.99155
0.99151
0.99148
0.99144
0.99139
0.99135
0.9913
0.99124
0.99118
0.99112
0.99105
0.99097
0.99089
0.99081
0.99072
0.99062
0.99052
0.99042
0.9903
0.99018
0.99005
0.9899
0.98975
0.98959
0.98942
0.98923
0.98904
0.98882
0.9886
0.98836
0.9881
0.98783
0.98754
0.98723
0.98691
0.98658
0.98624
0.98589
0.98553
0.98517
0.9848
0.98442
0.98404
0.98366
0.98328
0.98291
0.98255
0.9822
0.98188
0.9816
0.98136
0.98119
0.98109
0.98106
0.98113
0.98128
0.98153
0.98187
0.98231
0.98283
0.98343
0.98407
0.98475
0.98546
0.98623
0.98712
0.98814
0.98926
0.98975
0.98987
0.98993
0.99043
0.99003
0.98837
0.98401
0.97519
0.95729
0.93403
0.89983
0.84201
0.75654
0.6416
0.46727
0.24446
0.11664
0.056825
0.031179
0.021476
0.017982
0.016791
0.016124
0.01588
0.015836
0.015896
0.015932
0.015898
0.015833
0.015726
0.015611
0.015467
0.015304
0.015094
0.014899
0.014729
0.01458
0.01444
0.014284
0.014123
0.013953
0.013803
0.013654
0.01345
0.013217
0.013133
0.013598
0.015126
0.011632
0.0073811
0.0041981
0.0028317
0.0023657
0.0029698
0.0033935
0.0035029
0.0034752
0.0034209
0.0033755
0.0033363
0.0032989
0.003263
0.00323
0.0032001
0.003173
0.0031478
0.0031239
0.0031008
0.0030784
0.0030564
0.0030348
0.0030137
0.002993
0.0029726
0.0029527
0.0029331
0.0029138
0.0028949
0.0028764
0.0028581
0.0028402
0.0028227
0.0028055
0.0027886
0.0027721
0.002756
0.0027403
0.0027249
0.00271
0.0026955
0.0026814
0.0026677
0.0026546
0.0026419
0.0026297
0.0026179
0.0026067
0.002596
0.0025858
0.0025761
0.0025669
0.0025582
0.00255
0.0025422
0.002535
0.0025283
0.0025219
0.0025161
0.0025107
0.0025056
0.002501
0.0024968
0.0024929
0.0024894
0.0024862
0.0024833
0.0024808
0.0024785
0.0024764
0.0024747
0.0024731
0.0024718
0.0024708
0.0024702
0.0024694
0.0024676
0.0024635
0.0024627
0.0024778
0.002518
0.002533
0.0023289
0.0021411
0.002284
0.0024636
0.0028765
0.99939
0.99963
0.99975
0.99986
0.99983
0.99978
0.99975
0.99973
0.9997
0.99966
0.99963
0.99959
0.99956
0.99952
0.99948
0.99944
0.99939
0.99934
0.99929
0.99923
0.99917
0.99911
0.99904
0.99897
0.99889
0.99882
0.99873
0.99865
0.99856
0.99847
0.99837
0.99827
0.99817
0.99806
0.99795
0.99784
0.99772
0.9976
0.99748
0.99735
0.99723
0.9971
0.99697
0.99684
0.99671
0.99658
0.99646
0.99633
0.99621
0.99609
0.99597
0.99585
0.99574
0.99563
0.99552
0.99543
0.99534
0.99526
0.9952
0.99515
0.99513
0.99515
0.99519
0.99526
0.99536
0.99547
0.99559
0.99555
0.99543
0.99532
0.99497
0.9946
0.99439
0.9938
0.99307
0.99238
0.99196
0.99123
0.99086
0.99033
0.98952
0.98874
0.98855
0.98839
0.98844
0.98892
0.98929
0.98958
0.9898
0.98994
0.99005
0.99012
0.99016
0.9902
0.99022
0.99023
0.99022
0.99022
0.99021
0.99021
0.99021
0.99022
0.99024
0.99026
0.99028
0.99031
0.99034
0.99036
0.99039
0.99041
0.99043
0.99045
0.99047
0.99048
0.9905
0.99051
0.99052
0.99053
0.99054
0.99055
0.99056
0.99057
0.99058
0.99058
0.99059
0.9906
0.99061
0.99062
0.99062
0.99063
0.99064
0.99064
0.99065
0.99065
0.99066
0.99066
0.99067
0.99068
0.99068
0.99069
0.9907
0.99071
0.99072
0.99073
0.99074
0.99075
0.99076
0.99077
0.99078
0.99079
0.9908
0.99082
0.99083
0.99084
0.99086
0.99087
0.99089
0.9909
0.99091
0.99093
0.99094
0.99095
0.99097
0.99098
0.99099
0.991
0.991
0.99101
0.99102
0.99103
0.99103
0.99104
0.99104
0.99104
0.99104
0.99105
0.99105
0.99105
0.99105
0.99105
0.99105
0.99105
0.99105
0.99105
0.99105
0.99104
0.99104
0.99103
0.99102
0.99101
0.991
0.99099
0.99097
0.99095
0.99093
0.99091
0.99088
0.99085
0.99082
0.99079
0.99075
0.99071
0.99066
0.99062
0.99056
0.9905
0.99044
0.99037
0.99029
0.99021
0.99013
0.99003
0.98993
0.98982
0.9897
0.98957
0.98943
0.98928
0.98913
0.98896
0.98877
0.98857
0.98836
0.98813
0.98788
0.98762
0.98733
0.98703
0.9867
0.98635
0.98598
0.9856
0.9852
0.98478
0.98436
0.98393
0.9835
0.98307
0.98265
0.98223
0.98182
0.98143
0.98106
0.98073
0.98043
0.98019
0.98001
0.97991
0.97989
0.97996
0.98012
0.98036
0.98067
0.98105
0.98148
0.98195
0.98244
0.98296
0.98346
0.98394
0.98439
0.98484
0.98534
0.98597
0.98686
0.98813
0.98993
0.99158
0.992
0.99072
0.98707
0.97944
0.96907
0.95671
0.94018
0.91833
0.8893
0.85152
0.78467
0.65203
0.37551
0.16008
0.075898
0.045157
0.030507
0.022701
0.018367
0.016254
0.015352
0.015119
0.0152
0.015365
0.015514
0.015576
0.015577
0.01551
0.015409
0.01526
0.015107
0.014956
0.014815
0.014655
0.01449
0.014326