/*--------------------------------*- C++ -*----------------------------------*\
| =========                 |                                                 |
| \\      /  F ield         | OpenFOAM: The Open Source CFD Toolbox           |
|  \\    /   O peration     | Version:  5.x                                   |
|   \\  /    A nd           | Web:      www.OpenFOAM.org                      |
|    \\/     M anipulation  |                                                 |
\*---------------------------------------------------------------------------*/
FoamFile
{
    version     2.0;
    format      ascii;
    class       volScalarField;
    location    "50";
    object      gamma;
}
// * * * * * * * * * * * * * * * * * * * * * * * * * * * * * * * * * * * * * //

dimensions      [0 0 0 0 0 0 0];

internalField   nonuniform List<scalar> 
86400
(
0.009073
0.008002
0.007531
0.007294
0.008095
0.009763
0.01185
0.01478
0.02013
0.02792
0.03959
0.05493
0.07607
0.09588
0.1162
0.1273
0.1309
0.1236
0.1216
0.125
0.1332
0.1369
0.1362
0.1284
0.1245
0.1287
0.1278
0.1246
0.1157
0.1078
0.1003
0.09664
0.09398
0.09202
0.09081
0.09045
0.08325
0.0734
0.06135
0.05447
0.05108
0.05246
0.05255
0.05108
0.05179
0.05384
0.05858
0.06153
0.06297
0.06058
0.05928
0.05867
0.05827
0.05763
0.05623
0.05641
0.05709
0.05874
0.0608
0.06378
0.06459
0.06633
0.06482
0.06505
0.06854
0.07472
0.08135
0.08719
0.08682
0.08429
0.08457
0.08602
0.08792
0.09007
0.09467
0.1004
0.1054
0.1154
0.1275
0.142
0.1548
0.165
0.1665
0.1689
0.1711
0.172
0.1729
0.1737
0.1744
0.1747
0.1742
0.1801
0.1898
0.2045
0.2156
0.2229
0.2224
0.223
0.2242
0.2261
0.2282
0.2308
0.234
0.2373
0.2388
0.2457
0.2573
0.2742
0.2886
0.299
0.3009
0.3003
0.2995
0.2986
0.2977
0.2971
0.2969
0.2969
0.2969
0.2968
0.2968
0.2968
0.2969
0.2969
0.297
0.297
0.2971
0.2972
0.2973
0.2976
0.298
0.2985
0.2979
0.2967
0.2954
0.2943
0.2938
0.2943
0.2914
0.2867
0.2807
0.2761
0.2734
0.2732
0.2732
0.2731
0.2732
0.2731
0.272
0.2673
0.2606
0.2545
0.2527
0.2539
0.2671
0.3009
0.3699
0.4715
0.8551
0.9686
0.008315
0.007339
0.006997
0.006912
0.008206
0.01093
0.01482
0.02084
0.03106
0.04542
0.06721
0.09
0.1124
0.1276
0.1449
0.1589
0.175
0.1781
0.1942
0.2185
0.2524
0.2803
0.2907
0.2673
0.2511
0.2386
0.2289
0.217
0.2025
0.1879
0.1707
0.157
0.1454
0.1362
0.1302
0.1279
0.1194
0.1086
0.09681
0.08875
0.08411
0.08439
0.08444
0.08226
0.08175
0.08278
0.08489
0.08661
0.08746
0.08535
0.0846
0.08471
0.08511
0.08517
0.08415
0.08495
0.08642
0.09049
0.09439
0.09966
0.1018
0.1061
0.1047
0.1063
0.1133
0.1279
0.1397
0.1501
0.1503
0.1478
0.1497
0.1538
0.1593
0.1626
0.1677
0.1726
0.1774
0.1863
0.199
0.2095
0.2211
0.2308
0.2335
0.2364
0.2391
0.2402
0.2412
0.242
0.2428
0.2434
0.2432
0.2497
0.2597
0.2718
0.2822
0.289
0.289
0.2899
0.2912
0.2927
0.2939
0.2955
0.2979
0.3
0.3008
0.305
0.3126
0.3227
0.3338
0.3414
0.3431
0.3424
0.3417
0.3409
0.3402
0.3399
0.34
0.3403
0.3405
0.3407
0.3409
0.3412
0.3415
0.3418
0.3422
0.3426
0.3429
0.3433
0.3439
0.3445
0.3453
0.3463
0.3458
0.3446
0.3433
0.3422
0.3416
0.3421
0.3397
0.3361
0.332
0.3286
0.3268
0.3267
0.3266
0.3263
0.3261
0.3265
0.3265
0.3231
0.3173
0.3133
0.316
0.3262
0.3547
0.4101
0.4896
0.5832
0.7634
0.8799
0.008251
0.007383
0.00719
0.007541
0.009873
0.01465
0.02218
0.03521
0.05584
0.08319
0.1184
0.1485
0.1811
0.2063
0.2349
0.2555
0.2799
0.2928
0.3554
0.4283
0.4976
0.5324
0.539
0.5137
0.4959
0.4763
0.4505
0.4167
0.381
0.3468
0.3147
0.2863
0.2612
0.2415
0.2272
0.2203
0.2072
0.1909
0.1753
0.1652
0.1594
0.1585
0.1556
0.1513
0.1486
0.1486
0.1497
0.1508
0.1514
0.1502
0.1504
0.1517
0.1534
0.1547
0.1547
0.1574
0.1607
0.1666
0.1743
0.185
0.1923
0.2034
0.2064
0.2173
0.2322
0.2516
0.2697
0.287
0.2891
0.2888
0.2959
0.3079
0.3219
0.322
0.3183
0.3101
0.3017
0.302
0.3147
0.3227
0.3328
0.3407
0.3432
0.3466
0.3497
0.3509
0.3533
0.3564
0.3596
0.3622
0.3624
0.367
0.375
0.3845
0.3925
0.3977
0.3983
0.3998
0.4024
0.404
0.4052
0.406
0.4083
0.4102
0.4092
0.4077
0.4078
0.4092
0.4125
0.416
0.4169
0.416
0.4153
0.4146
0.4143
0.4144
0.415
0.4157
0.4164
0.4171
0.4178
0.4185
0.4192
0.4199
0.4206
0.4214
0.4221
0.4229
0.4238
0.4247
0.4258
0.4271
0.427
0.4265
0.4254
0.4248
0.4243
0.4247
0.4233
0.4213
0.4191
0.4174
0.4167
0.4169
0.4164
0.4157
0.4153
0.4163
0.4182
0.4187
0.4187
0.4216
0.4332
0.454
0.491
0.546
0.6144
0.6895
0.7611
0.809
0.008646
0.008143
0.008514
0.01007
0.0151
0.02538
0.04281
0.0742
0.1205
0.1775
0.2384
0.2938
0.3758
0.4165
0.4517
0.4644
0.4792
0.5022
0.588
0.6587
0.7139
0.7412
0.7402
0.72
0.7011
0.6764
0.6487
0.6215
0.596
0.5718
0.5487
0.5217
0.49
0.4629
0.4393
0.4233
0.4037
0.3839
0.3691
0.3648
0.3642
0.3671
0.3648
0.3587
0.3481
0.3406
0.3335
0.3285
0.3273
0.3309
0.3361
0.3428
0.3503
0.3579
0.364
0.3746
0.3862
0.4018
0.4198
0.4392
0.4561
0.4765
0.4867
0.5008
0.5187
0.5378
0.5518
0.5658
0.5708
0.5752
0.5835
0.5943
0.6009
0.5905
0.5724
0.5459
0.5248
0.514
0.5169
0.516
0.5158
0.5166
0.5188
0.5217
0.5247
0.527
0.5297
0.5325
0.5349
0.5369
0.5372
0.5373
0.5383
0.5405
0.5416
0.5429
0.5441
0.5456
0.5476
0.5486
0.5493
0.549
0.5482
0.546
0.5406
0.5324
0.5243
0.5183
0.5149
0.5145
0.5148
0.5143
0.5142
0.5142
0.5146
0.5152
0.5163
0.5174
0.5184
0.5195
0.5205
0.5215
0.5225
0.5236
0.5246
0.5257
0.5264
0.527
0.5274
0.528
0.5289
0.5303
0.5309
0.5311
0.5312
0.5311
0.5308
0.5309
0.5308
0.5311
0.5313
0.5319
0.5327
0.5332
0.533
0.533
0.5335
0.5359
0.5402
0.5453
0.5515
0.5616
0.5782
0.6025
0.6384
0.6845
0.7366
0.7898
0.8378
0.87
0.01079
0.01125
0.01294
0.01734
0.02898
0.05258
0.09143
0.1611
0.2484
0.3348
0.4251
0.5061
0.6109
0.6606
0.6809
0.6535
0.625
0.6344
0.7144
0.7796
0.8146
0.8289
0.8168
0.7988
0.7864
0.7751
0.7616
0.7467
0.7316
0.7157
0.7005
0.6819
0.6616
0.6418
0.6234
0.605
0.5818
0.5681
0.5665
0.5783
0.5944
0.6052
0.6058
0.605
0.602
0.6012
0.6008
0.6018
0.6046
0.61
0.6154
0.621
0.6267
0.6332
0.6398
0.6464
0.6522
0.6589
0.6667
0.6748
0.6845
0.6953
0.7043
0.7106
0.7155
0.7179
0.719
0.7203
0.7206
0.7214
0.722
0.7242
0.7222
0.7074
0.6836
0.6556
0.6324
0.622
0.6243
0.6265
0.6267
0.6273
0.6286
0.6306
0.6325
0.6347
0.6365
0.6382
0.6403
0.6421
0.6421
0.6421
0.6426
0.644
0.6452
0.6468
0.6481
0.6496
0.6512
0.652
0.652
0.6502
0.6462
0.6406
0.6325
0.6234
0.6144
0.6084
0.604
0.6026
0.602
0.6017
0.6018
0.6023
0.603
0.6039
0.605
0.6062
0.6074
0.6086
0.6097
0.6108
0.612
0.6131
0.6142
0.6154
0.616
0.6164
0.6167
0.6173
0.6182
0.6196
0.6206
0.6213
0.6218
0.622
0.6222
0.6225
0.6229
0.6235
0.624
0.6249
0.6258
0.6266
0.6272
0.6284
0.6301
0.6338
0.6399
0.6482
0.6588
0.6726
0.6906
0.7139
0.7441
0.7785
0.8144
0.8482
0.8777
0.8988
0.01429
0.01673
0.02135
0.03235
0.05856
0.1036
0.1698
0.2722
0.3754
0.4397
0.5284
0.635
0.7445
0.7973
0.8039
0.7634
0.7125
0.7018
0.7573
0.8142
0.8437
0.8557
0.844
0.8323
0.8205
0.8133
0.805
0.7979
0.788
0.7762
0.7652
0.7513
0.736
0.7192
0.7013
0.6774
0.6471
0.6281
0.6224
0.6328
0.65
0.6657
0.6713
0.6767
0.6794
0.6807
0.6817
0.6839
0.6874
0.6929
0.6985
0.7046
0.716
0.7307
0.7466
0.7614
0.7731
0.7804
0.7866
0.7915
0.7967
0.8006
0.8028
0.8019
0.799
0.795
0.7906
0.7853
0.7813
0.7775
0.7731
0.7715
0.7665
0.7524
0.7306
0.7111
0.6947
0.69
0.6932
0.6965
0.6973
0.6982
0.6989
0.7011
0.7025
0.7043
0.7056
0.7067
0.7075
0.7085
0.7089
0.7093
0.7107
0.7123
0.7134
0.7146
0.7151
0.7157
0.7164
0.7157
0.7136
0.7093
0.7024
0.6945
0.6857
0.6773
0.671
0.6671
0.6643
0.6637
0.6635
0.6636
0.664
0.6649
0.6658
0.6668
0.6679
0.669
0.6701
0.6713
0.6725
0.6736
0.6747
0.6758
0.6769
0.6779
0.6786
0.679
0.6793
0.6799
0.6807
0.682
0.6832
0.6842
0.6853
0.6864
0.6874
0.688
0.6886
0.6892
0.6902
0.6912
0.6927
0.6942
0.6958
0.698
0.7012
0.706
0.7128
0.7218
0.7329
0.7464
0.7628
0.7826
0.806
0.8309
0.8553
0.8769
0.8953
0.9101
0.01952
0.02469
0.03377
0.05306
0.09367
0.1535
0.2388
0.3503
0.4388
0.4924
0.6008
0.7181
0.8219
0.8658
0.8688
0.8286
0.7659
0.7309
0.7542
0.7991
0.826
0.8353
0.827
0.8283
0.8316
0.8376
0.8389
0.8356
0.8308
0.8244
0.8179
0.8083
0.7976
0.7848
0.768
0.7409
0.7059
0.6787
0.6632
0.6654
0.6728
0.6792
0.6809
0.6857
0.6899
0.6921
0.6939
0.6964
0.7002
0.7065
0.7139
0.7229
0.7398
0.7605
0.7821
0.8009
0.8188
0.8317
0.8427
0.8503
0.8524
0.8491
0.8446
0.8358
0.8257
0.8171
0.8077
0.7983
0.7927
0.7866
0.7802
0.777
0.7695
0.7582
0.7446
0.7347
0.7278
0.7297
0.7337
0.7375
0.7383
0.7389
0.7396
0.7411
0.7426
0.7444
0.7456
0.7465
0.7469
0.7472
0.7469
0.7465
0.7469
0.7478
0.7486
0.7493
0.7497
0.7503
0.7501
0.7477
0.7436
0.7369
0.7286
0.7202
0.7134
0.7075
0.7041
0.7027
0.7017
0.7018
0.7018
0.7021
0.7025
0.7034
0.7042
0.7051
0.706
0.707
0.708
0.7091
0.7101
0.7111
0.7121
0.7131
0.7141
0.715
0.7158
0.7164
0.717
0.7178
0.7187
0.72
0.7213
0.7226
0.7238
0.725
0.726
0.7269
0.7281
0.7291
0.7305
0.732
0.7341
0.7363
0.7389
0.7422
0.7465
0.7519
0.7588
0.7673
0.7774
0.7897
0.8044
0.8215
0.8402
0.8587
0.8753
0.8894
0.9011
0.91
0.02956
0.03802
0.052
0.07892
0.129
0.1941
0.2874
0.391
0.4812
0.5666
0.6879
0.7943
0.869
0.8979
0.8972
0.8653
0.8066
0.7493
0.7217
0.7263
0.7402
0.7527
0.763
0.7906
0.8195
0.847
0.8641
0.8698
0.8699
0.8692
0.8667
0.8622
0.8548
0.8445
0.8285
0.8021
0.7686
0.7378
0.7117
0.6958
0.6896
0.6846
0.6818
0.6866
0.6921
0.6954
0.6983
0.7017
0.7069
0.7149
0.7254
0.7382
0.7596
0.7843
0.8102
0.8299
0.8487
0.8649
0.8795
0.8871
0.8854
0.8741
0.8587
0.8406
0.8256
0.8135
0.8024
0.7911
0.7846
0.7787
0.7721
0.7683
0.7638
0.7579
0.7527
0.7512
0.7519
0.7562
0.7597
0.7627
0.7633
0.7636
0.7639
0.765
0.7665
0.7679
0.7687
0.7685
0.7681
0.7673
0.7671
0.7673
0.7686
0.77
0.7713
0.772
0.7711
0.7699
0.7672
0.7621
0.7554
0.7469
0.7383
0.7315
0.7272
0.7241
0.7235
0.7239
0.7243
0.7248
0.7252
0.7257
0.7263
0.7272
0.728
0.7288
0.7297
0.7306
0.7316
0.7325
0.7335
0.7344
0.7354
0.7364
0.7374
0.7384
0.7395
0.7404
0.7414
0.7426
0.744
0.7458
0.7476
0.7492
0.7504
0.7516
0.7529
0.754
0.7555
0.7569
0.7587
0.7608
0.7633
0.7661
0.7695
0.7735
0.7784
0.7841
0.7908
0.7984
0.8076
0.8189
0.8321
0.8467
0.8616
0.8749
0.8862
0.8955
0.9023
0.9064
0.04656
0.05889
0.0751
0.1065
0.1611
0.2315
0.3286
0.4464
0.5567
0.6597
0.769
0.8484
0.8915
0.908
0.9055
0.878
0.8351
0.7798
0.7394
0.7278
0.7209
0.6947
0.6843
0.7124
0.7631
0.8217
0.8587
0.8763
0.8846
0.891
0.8928
0.8932
0.8901
0.8841
0.8719
0.8502
0.8218
0.7915
0.7619
0.7372
0.7206
0.7055
0.6995
0.7029
0.7092
0.7144
0.7193
0.7248
0.7322
0.7419
0.7542
0.7684
0.7888
0.8109
0.8309
0.8462
0.8643
0.88
0.8944
0.8991
0.8929
0.8744
0.8515
0.8277
0.8105
0.7975
0.7862
0.7754
0.7714
0.7672
0.7629
0.7612
0.7608
0.761
0.7623
0.7656
0.7689
0.7723
0.7749
0.7769
0.7778
0.7781
0.7781
0.7785
0.7791
0.7796
0.7804
0.7806
0.7806
0.7801
0.78
0.7799
0.781
0.7821
0.7833
0.7829
0.7803
0.7765
0.7709
0.7637
0.7558
0.7486
0.7423
0.7386
0.7373
0.7368
0.7373
0.738
0.7385
0.7391
0.7396
0.7402
0.7409
0.7417
0.7425
0.7434
0.7443
0.7453
0.7463
0.7472
0.7482
0.7492
0.7503
0.7514
0.7526
0.754
0.7557
0.7575
0.7594
0.7613
0.7633
0.7653
0.7674
0.7692
0.7705
0.7718
0.773
0.7747
0.7766
0.7785
0.7808
0.7833
0.7861
0.7894
0.7931
0.7973
0.8021
0.8076
0.8136
0.8203
0.8289
0.8394
0.8515
0.8642
0.8757
0.885
0.8927
0.8989
0.9021
0.9023
0.07031
0.08315
0.1016
0.1407
0.2029
0.298
0.437
0.5683
0.6739
0.7635
0.8327
0.8746
0.8931
0.8975
0.8879
0.8584
0.8172
0.763
0.7114
0.6963
0.6846
0.6381
0.592
0.5857
0.6182
0.7169
0.789
0.8268
0.8513
0.8735
0.8877
0.8989
0.9045
0.9036
0.8965
0.881
0.861
0.8359
0.8083
0.7815
0.7598
0.7399
0.7329
0.7344
0.7394
0.7453
0.7515
0.7588
0.7678
0.7777
0.7885
0.7999
0.8143
0.8295
0.8425
0.8523
0.8659
0.8776
0.8876
0.8897
0.8794
0.8533
0.8273
0.801
0.7851
0.7747
0.7666
0.7603
0.7601
0.7601
0.761
0.7632
0.7659
0.7688
0.7723
0.7749
0.7772
0.7795
0.7811
0.7825
0.7831
0.7834
0.7827
0.7825
0.7828
0.7837
0.7849
0.7855
0.7859
0.7854
0.7856
0.7859
0.787
0.7872
0.7869
0.7843
0.7793
0.7732
0.7658
0.7583
0.7519
0.7474
0.744
0.7431
0.7435
0.7441
0.7447
0.7455
0.7462
0.747
0.7478
0.7486
0.7494
0.7503
0.7513
0.7523
0.7533
0.7544
0.7554
0.7565
0.7577
0.7589
0.7602
0.7618
0.7637
0.7658
0.7682
0.7707
0.7728
0.775
0.7773
0.7796
0.7817
0.7834
0.7848
0.7862
0.7878
0.7899
0.7922
0.7947
0.7973
0.8002
0.8034
0.8068
0.8106
0.8148
0.8194
0.8244
0.8298
0.8355
0.8436
0.8536
0.8648
0.8753
0.8842
0.8905
0.8957
0.8991
0.8991
0.8956
0.09764
0.1119
0.1328
0.1799
0.2636
0.4276
0.587
0.7076
0.7876
0.8433
0.8712
0.8846
0.8814
0.8604
0.8165
0.7476
0.6723
0.6046
0.6001
0.6385
0.645
0.5711
0.434
0.3343
0.3098
0.4342
0.5841
0.6796
0.7447
0.7966
0.8352
0.8659
0.8859
0.8945
0.8959
0.887
0.8748
0.8578
0.8386
0.8192
0.8035
0.7885
0.7824
0.7818
0.7848
0.7887
0.7932
0.7991
0.8066
0.8139
0.8215
0.828
0.8336
0.8384
0.8426
0.846
0.8529
0.8592
0.8645
0.8568
0.8406
0.8136
0.7889
0.7685
0.7599
0.7561
0.7553
0.7552
0.7577
0.7603
0.7629
0.765
0.7675
0.7701
0.7729
0.7751
0.7769
0.7785
0.78
0.7815
0.7821
0.7823
0.7815
0.7811
0.7814
0.7826
0.7842
0.7854
0.786
0.786
0.7863
0.7864
0.7865
0.7846
0.7817
0.7768
0.77
0.7626
0.756
0.7502
0.7468
0.7453
0.7447
0.7452
0.7458
0.7466
0.7473
0.7482
0.749
0.7498
0.7507
0.7517
0.7527
0.7538
0.7549
0.756
0.7572
0.7584
0.7596
0.761
0.7626
0.7645
0.7666
0.7691
0.7717
0.7742
0.777
0.7797
0.7822
0.7847
0.787
0.7891
0.7912
0.7929
0.7944
0.7961
0.7982
0.8008
0.8036
0.8065
0.8095
0.8125
0.8158
0.8194
0.8231
0.8272
0.8314
0.8359
0.8406
0.8454
0.8526
0.8618
0.8718
0.8808
0.888
0.8922
0.8951
0.8958
0.8925
0.8859
0.1197
0.1366
0.1671
0.2288
0.3512
0.5468
0.6994
0.8052
0.861
0.8859
0.8867
0.8763
0.8397
0.7558
0.5925
0.3439
0.1935
0.1631
0.1865
0.2729
0.3541
0.3311
0.2562
0.1761
0.142
0.1682
0.2492
0.3645
0.4965
0.6038
0.6953
0.7723
0.827
0.8575
0.8759
0.8779
0.8726
0.8622
0.8496
0.8345
0.8222
0.8094
0.8024
0.7986
0.7986
0.7989
0.8002
0.8029
0.8072
0.8118
0.817
0.8198
0.8227
0.8253
0.8285
0.8306
0.8315
0.8271
0.8183
0.8024
0.7837
0.7638
0.751
0.7443
0.7451
0.7464
0.7486
0.7499
0.7516
0.7538
0.7565
0.759
0.762
0.7652
0.7679
0.7696
0.771
0.7723
0.7738
0.7753
0.7757
0.7754
0.7741
0.7739
0.7747
0.7765
0.7785
0.78
0.7807
0.781
0.7814
0.7811
0.7799
0.7759
0.7703
0.7628
0.7554
0.7491
0.7446
0.7414
0.7406
0.7411
0.7417
0.7425
0.7434
0.7442
0.7451
0.7461
0.7471
0.7481
0.7492
0.7504
0.7516
0.7528
0.7541
0.7554
0.7568
0.7586
0.7605
0.7626
0.7651
0.7679
0.7705
0.7736
0.7766
0.7796
0.7824
0.7852
0.7877
0.7902
0.7926
0.7946
0.7964
0.7981
0.8
0.8025
0.8053
0.8083
0.8114
0.8145
0.8176
0.8208
0.8242
0.8277
0.8314
0.8352
0.8391
0.8431
0.8471
0.8512
0.8572
0.8648
0.8731
0.8804
0.8861
0.8889
0.8903
0.8887
0.883
0.874
0.1265
0.1516
0.1976
0.2859
0.4378
0.6099
0.7544
0.8443
0.8882
0.9018
0.8873
0.8419
0.7261
0.4435
0.1205
0.03703
0.01884
0.01676
0.02314
0.04154
0.07318
0.09893
0.1112
0.1066
0.09729
0.1041
0.1293
0.1633
0.2215
0.319
0.4502
0.5996
0.7176
0.7886
0.8347
0.8537
0.8574
0.8533
0.8441
0.8315
0.8206
0.8086
0.7996
0.7917
0.7869
0.7824
0.7798
0.7786
0.7798
0.7815
0.7838
0.7854
0.7888
0.7927
0.7969
0.798
0.7947
0.7811
0.7621
0.743
0.7284
0.722
0.7245
0.7281
0.7309
0.7329
0.7344
0.736
0.7382
0.7414
0.7451
0.7485
0.7521
0.7553
0.7572
0.7582
0.7591
0.7609
0.7626
0.7641
0.7639
0.7627
0.7616
0.7622
0.764
0.7667
0.7695
0.7712
0.7718
0.7711
0.7699
0.7678
0.7646
0.7586
0.7513
0.7439
0.738
0.7344
0.7328
0.7322
0.7328
0.7337
0.7346
0.7356
0.7366
0.7376
0.7387
0.7399
0.7411
0.7424
0.7438
0.7452
0.7466
0.748
0.7498
0.7519
0.7541
0.7568
0.7595
0.7622
0.7654
0.7688
0.772
0.7755
0.7787
0.7815
0.7843
0.7872
0.7899
0.7924
0.7946
0.7964
0.7983
0.8005
0.8032
0.8064
0.8096
0.8128
0.816
0.8192
0.8224
0.8257
0.8291
0.8326
0.8361
0.8397
0.8432
0.8468
0.8503
0.8537
0.8582
0.864
0.8705
0.877
0.8822
0.8842
0.8839
0.8791
0.8714
0.8615
0.1242
0.1587
0.2219
0.3459
0.4976
0.6339
0.7526
0.8393
0.8815
0.8885
0.8531
0.7382
0.3987
0.0743
0.01348
0.003562
0.001723
0.001443
0.001947
0.003593
0.008157
0.01872
0.03836
0.06766
0.09002
0.1036
0.1107
0.1162
0.124
0.1513
0.2065
0.3486
0.5365
0.6757
0.7605
0.8027
0.8147
0.8171
0.812
0.8012
0.7903
0.7793
0.7704
0.7613
0.7543
0.7467
0.7396
0.7334
0.7293
0.726
0.7268
0.7316
0.7413
0.7503
0.7577
0.7565
0.7443
0.7251
0.7091
0.6971
0.6935
0.698
0.7033
0.708
0.7113
0.7133
0.7147
0.7168
0.7203
0.7248
0.7296
0.7338
0.7374
0.7402
0.7413
0.7416
0.7425
0.7453
0.7477
0.7492
0.7482
0.7463
0.7451
0.7465
0.7497
0.7528
0.755
0.7554
0.7544
0.752
0.7495
0.746
0.7415
0.7348
0.7283
0.7227
0.7195
0.7187
0.7192
0.72
0.721
0.7222
0.7233
0.7245
0.7258
0.7271
0.7285
0.73
0.7315
0.733
0.7346
0.7363
0.7383
0.7407
0.7436
0.7468
0.7498
0.7532
0.7565
0.7599
0.7636
0.7674
0.7709
0.7743
0.7775
0.7803
0.7831
0.786
0.7887
0.7911
0.7933
0.7955
0.7979
0.8009
0.8043
0.8078
0.8112
0.8145
0.8178
0.8211
0.8244
0.8278
0.8312
0.8346
0.8379
0.8413
0.8445
0.8477
0.8508
0.8537
0.8569
0.8614
0.8669
0.8724
0.8772
0.879
0.877
0.8701
0.8606
0.85
0.1184
0.1637
0.2552
0.4446
0.5786
0.6701
0.7391
0.8004
0.8428
0.8474
0.7899
0.5627
0.1058
0.0125
0.001797
0.0004406
0.0002199
0.000211
0.0003321
0.0007119
0.001967
0.00614
0.01765
0.04377
0.08296
0.1124
0.1095
0.103
0.09185
0.09413
0.1129
0.179
0.3054
0.5039
0.6277
0.6983
0.7212
0.7369
0.7412
0.7382
0.732
0.7228
0.7147
0.7061
0.6982
0.6893
0.6792
0.6704
0.6653
0.6632
0.6692
0.682
0.699
0.7111
0.7152
0.7078
0.691
0.6747
0.6649
0.6613
0.6648
0.6716
0.6787
0.6838
0.6869
0.6886
0.6905
0.6935
0.6985
0.7043
0.7102
0.7149
0.7182
0.7204
0.7208
0.7207
0.7222
0.7256
0.7285
0.7301
0.7289
0.727
0.7257
0.7269
0.7293
0.731
0.7314
0.7301
0.7277
0.7245
0.7213
0.7171
0.7126
0.7077
0.704
0.7014
0.7009
0.7016
0.7026
0.7038
0.7052
0.7066
0.7081
0.7097
0.7113
0.713
0.7147
0.7165
0.7183
0.7205
0.7229
0.7256
0.7288
0.7322
0.736
0.74
0.7439
0.7477
0.7515
0.7552
0.7592
0.7633
0.7668
0.7701
0.7731
0.7759
0.7789
0.782
0.7851
0.7878
0.7903
0.7929
0.796
0.7995
0.8033
0.807
0.8104
0.8138
0.8172
0.8206
0.824
0.8274
0.8308
0.8341
0.8373
0.8405
0.8435
0.8464
0.8491
0.8521
0.8551
0.8591
0.864
0.869
0.8732
0.8749
0.8721
0.8643
0.8541
0.8438
0.1182
0.182
0.3228
0.5579
0.6719
0.7203
0.7353
0.7564
0.7857
0.7919
0.7094
0.3144
0.0331
0.002912
0.0003759
9.575e-05
5.792e-05
6.702e-05
0.0001225
0.0003106
0.001073
0.004282
0.01515
0.04334
0.09336
0.1275
0.1255
0.105
0.08487
0.08081
0.09425
0.1424
0.2202
0.3548
0.473
0.5478
0.5757
0.6044
0.6216
0.6306
0.6328
0.6283
0.6249
0.6232
0.6196
0.6149
0.6073
0.5991
0.6006
0.6065
0.6232
0.6472
0.6695
0.6749
0.67
0.6517
0.6314
0.6202
0.6188
0.6246
0.6335
0.6422
0.6499
0.6547
0.6576
0.6593
0.6619
0.6664
0.6734
0.6807
0.6875
0.6924
0.6952
0.6964
0.6963
0.697
0.6991
0.7023
0.7053
0.7072
0.7068
0.7046
0.7022
0.7007
0.7002
0.6996
0.6987
0.6965
0.6938
0.6902
0.6872
0.6838
0.681
0.6788
0.678
0.678
0.6791
0.6805
0.682
0.6837
0.6855
0.6873
0.6892
0.6912
0.6932
0.6953
0.6973
0.6998
0.7026
0.7061
0.71
0.7139
0.718
0.7224
0.7269
0.7313
0.7356
0.7397
0.7439
0.748
0.7522
0.7561
0.7595
0.7628
0.766
0.7693
0.7728
0.7765
0.7799
0.7829
0.7857
0.7889
0.7924
0.7964
0.8003
0.804
0.8075
0.811
0.8145
0.818
0.8215
0.8249
0.8283
0.8315
0.8346
0.8376
0.8404
0.8431
0.8459
0.8496
0.8534
0.8577
0.8625
0.8668
0.87
0.8716
0.8697
0.8629
0.853
0.8399
0.1218
0.2091
0.4077
0.6461
0.751
0.7796
0.7584
0.7337
0.7468
0.752
0.6603
0.2215
0.0193
0.001204
0.0001369
3.956e-05
3.078e-05
4.871e-05
0.0001253
0.000429
0.00178
0.007097
0.02194
0.0528
0.1011
0.1271
0.1259
0.1067
0.08508
0.07906
0.0938
0.1372
0.1936
0.27
0.3191
0.3574
0.3836
0.4233
0.4598
0.4826
0.4969
0.5023
0.5095
0.5166
0.522
0.5261
0.5252
0.521
0.5355
0.5569
0.5905
0.6216
0.6381
0.6297
0.6122
0.5891
0.5715
0.5703
0.5773
0.588
0.5989
0.6092
0.617
0.6214
0.624
0.6263
0.6303
0.6375
0.646
0.6539
0.6605
0.6651
0.6675
0.6687
0.6693
0.671
0.6737
0.6769
0.6794
0.6806
0.6799
0.6764
0.6714
0.667
0.664
0.6616
0.6599
0.6573
0.6549
0.6519
0.6498
0.6483
0.6477
0.6482
0.6497
0.6513
0.6532
0.6552
0.6574
0.6596
0.6619
0.6643
0.6667
0.6691
0.6715
0.6744
0.6775
0.6815
0.6858
0.6909
0.6958
0.7011
0.706
0.7108
0.7154
0.7202
0.7248
0.7292
0.7337
0.7381
0.7424
0.7464
0.7502
0.7539
0.7576
0.7614
0.7654
0.7695
0.7731
0.7765
0.7798
0.7834
0.7873
0.7914
0.7953
0.7991
0.8027
0.8064
0.81
0.8136
0.8171
0.8205
0.8237
0.8269
0.8299
0.8327
0.8354
0.8382
0.8419
0.8466
0.8516
0.8569
0.8616
0.8655
0.8685
0.8706
0.8703
0.8622
0.849
0.8274
0.1264
0.2399
0.4803
0.7035
0.7907
0.8174
0.7909
0.7353
0.7459
0.7453
0.6611
0.2061
0.01672
0.0008609
0.0001008
3.431e-05
3.665e-05
8.505e-05
0.0003032
0.001256
0.005354
0.01833
0.04566
0.08355
0.128
0.1404
0.1322
0.1148
0.09411
0.08748
0.1052
0.1478
0.1996
0.2436
0.2505
0.2477
0.2521
0.2738
0.301
0.3272
0.3501
0.3655
0.3843
0.4034
0.4204
0.4329
0.4372
0.4401
0.4691
0.5053
0.5508
0.5834
0.5921
0.5733
0.5514
0.5313
0.5233
0.5299
0.5398
0.5497
0.5606
0.5715
0.5797
0.5846
0.5877
0.5918
0.5981
0.6074
0.6161
0.6237
0.6293
0.6333
0.6359
0.6383
0.6401
0.6424
0.6453
0.6478
0.6497
0.65
0.6481
0.6429
0.6363
0.6288
0.6235
0.62
0.6187
0.6163
0.6143
0.6124
0.6118
0.6118
0.613
0.6151
0.6177
0.6205
0.6233
0.6262
0.629
0.6319
0.6347
0.6376
0.6404
0.6438
0.6474
0.6519
0.6568
0.6628
0.669
0.6762
0.6826
0.6887
0.694
0.6992
0.7037
0.7084
0.7133
0.7179
0.7227
0.7271
0.7313
0.7353
0.7395
0.7437
0.7481
0.7526
0.7571
0.7614
0.7651
0.7687
0.7724
0.7764
0.7805
0.7847
0.7887
0.7925
0.7963
0.8
0.8037
0.8073
0.8108
0.8141
0.8173
0.8204
0.8233
0.8259
0.8288
0.8325
0.8374
0.8434
0.8495
0.855
0.8595
0.8632
0.8633
0.8616
0.8581
0.8453
0.8266
0.7982
0.1386
0.2785
0.5304
0.7333
0.8096
0.8347
0.8081
0.7458
0.7456
0.7359
0.6629
0.2335
0.02117
0.001144
0.0001461
5.79e-05
8.422e-05
0.0002636
0.001144
0.00525
0.02008
0.05262
0.0986
0.1437
0.1751
0.1683
0.1495
0.1281
0.1072
0.1004
0.1171
0.1559
0.2026
0.2341
0.228
0.2119
0.2083
0.2194
0.2346
0.2505
0.2654
0.2761
0.2889
0.3035
0.3181
0.3304
0.3371
0.352
0.396
0.4467
0.4975
0.528
0.528
0.5065
0.4924
0.4835
0.4854
0.4954
0.5052
0.5136
0.5231
0.5329
0.5401
0.545
0.5495
0.5556
0.5634
0.5737
0.5815
0.5875
0.5914
0.5955
0.5999
0.6039
0.6066
0.6096
0.6122
0.6141
0.6152
0.6157
0.6132
0.6065
0.5979
0.588
0.5798
0.5751
0.5741
0.5731
0.5728
0.5728
0.5724
0.5731
0.575
0.578
0.5817
0.5857
0.5896
0.5933
0.5969
0.6003
0.6036
0.6075
0.6121
0.6181
0.6244
0.6315
0.6382
0.6462
0.6538
0.6618
0.669
0.6758
0.6812
0.6863
0.6911
0.6964
0.7021
0.7076
0.7126
0.7171
0.7208
0.7245
0.7286
0.733
0.7378
0.743
0.7477
0.7521
0.7559
0.7597
0.7638
0.7681
0.7724
0.7765
0.7805
0.7844
0.7883
0.792
0.7957
0.7992
0.8027
0.8059
0.8091
0.812
0.8147
0.8176
0.8214
0.8263
0.8326
0.8397
0.8463
0.852
0.8539
0.8535
0.8467
0.8374
0.8278
0.811
0.7869
0.7504
0.1533
0.3117
0.5478
0.7313
0.8034
0.8297
0.815
0.7623
0.7448
0.7178
0.6332
0.2288
0.03104
0.002484
0.0004046
0.0001893
0.0003339
0.001183
0.005549
0.02199
0.06713
0.1274
0.1876
0.231
0.2449
0.2203
0.1895
0.1549
0.1272
0.1149
0.1263
0.1588
0.1978
0.2265
0.2246
0.21
0.2035
0.2047
0.2081
0.2125
0.218
0.2251
0.234
0.2451
0.2563
0.2658
0.2725
0.2918
0.3292
0.3806
0.4244
0.4487
0.448
0.4394
0.4389
0.4415
0.4515
0.463
0.4731
0.4799
0.4887
0.4971
0.5032
0.5071
0.5118
0.518
0.5257
0.5351
0.5416
0.5456
0.5499
0.5549
0.5606
0.5657
0.5691
0.5717
0.5737
0.5759
0.5776
0.579
0.5778
0.5715
0.5621
0.553
0.5414
0.5338
0.5292
0.5249
0.5235
0.5254
0.527
0.5303
0.5341
0.5376
0.542
0.5469
0.5518
0.557
0.5622
0.5673
0.5727
0.5789
0.5861
0.5947
0.6036
0.613
0.6211
0.6298
0.6383
0.647
0.6546
0.6615
0.6672
0.673
0.6789
0.6854
0.692
0.698
0.7031
0.7074
0.711
0.7144
0.7183
0.7226
0.7274
0.7326
0.7374
0.7417
0.7455
0.7496
0.7539
0.7584
0.7628
0.7669
0.7709
0.7749
0.7787
0.7824
0.786
0.7894
0.7928
0.7959
0.7988
0.802
0.8052
0.809
0.8139
0.82
0.8271
0.8345
0.8383
0.8399
0.835
0.8275
0.8123
0.7959
0.7758
0.7542
0.7264
0.6922
0.1618
0.3076
0.5325
0.7109
0.7922
0.8249
0.8233
0.7901
0.745
0.6734
0.5284
0.2034
0.04629
0.007556
0.001873
0.00105
0.001936
0.006394
0.02504
0.07753
0.1702
0.2376
0.2861
0.3066
0.2956
0.258
0.2125
0.1646
0.1272
0.1058
0.1042
0.12
0.1507
0.1818
0.1955
0.1953
0.1933
0.1952
0.1975
0.2012
0.2056
0.2117
0.2194
0.2285
0.2367
0.2441
0.251
0.2699
0.2971
0.3306
0.3566
0.3726
0.3725
0.3771
0.3895
0.4034
0.4193
0.432
0.443
0.4511
0.4599
0.467
0.4724
0.4753
0.4794
0.4826
0.4874
0.4937
0.4974
0.5012
0.507
0.5134
0.5197
0.5246
0.5276
0.5299
0.5319
0.5352
0.5384
0.5414
0.5412
0.5369
0.529
0.5202
0.508
0.4987
0.4901
0.4836
0.4796
0.4803
0.481
0.4843
0.4893
0.4947
0.5011
0.5074
0.5138
0.5205
0.5281
0.5358
0.5439
0.5528
0.5624
0.5734
0.5846
0.5949
0.604
0.613
0.6216
0.6303
0.6383
0.6459
0.6528
0.6598
0.667
0.6744
0.6817
0.6879
0.6932
0.698
0.702
0.7058
0.7094
0.7131
0.7171
0.7216
0.7259
0.7301
0.7343
0.7386
0.7431
0.7477
0.752
0.7561
0.76
0.7638
0.7675
0.7711
0.7745
0.7778
0.7809
0.7843
0.7877
0.7917
0.7957
0.8003
0.8056
0.8125
0.8197
0.8245
0.822
0.8158
0.8007
0.7833
0.7571
0.7345
0.7109
0.6897
0.6641
0.6381
0.1672
0.3052
0.5179
0.6955
0.7903
0.8276
0.8347
0.8204
0.7678
0.6459
0.4451
0.1849
0.06492
0.02189
0.009502
0.006925
0.01253
0.03304
0.08765
0.1814
0.2842
0.3278
0.3708
0.3792
0.3484
0.2909
0.2307
0.1763
0.1293
0.1009
0.08936
0.0949
0.1155
0.1457
0.1712
0.1854
0.1916
0.1968
0.2004
0.2047
0.2098
0.216
0.2232
0.2312
0.2372
0.2438
0.2519
0.2694
0.2901
0.3087
0.3221
0.3293
0.3307
0.3405
0.355
0.3715
0.3888
0.4036
0.4163
0.426
0.4355
0.4437
0.4494
0.4508
0.4545
0.4528
0.4521
0.4524
0.4555
0.4598
0.4685
0.4753
0.4799
0.483
0.485
0.4877
0.4901
0.4939
0.4973
0.5017
0.5029
0.5008
0.495
0.4879
0.4757
0.4658
0.455
0.4467
0.44
0.4366
0.4334
0.4344
0.4396
0.4479
0.4586
0.4677
0.4763
0.4855
0.4963
0.5076
0.5189
0.53
0.5416
0.5531
0.5648
0.5753
0.5847
0.5939
0.6031
0.6124
0.6214
0.6301
0.6383
0.6465
0.6548
0.6629
0.6703
0.6768
0.6827
0.6882
0.6933
0.6979
0.7017
0.7046
0.7073
0.7105
0.7139
0.7181
0.7225
0.727
0.7315
0.7359
0.74
0.744
0.7477
0.7513
0.7548
0.7581
0.7617
0.7654
0.769
0.7729
0.7768
0.781
0.7852
0.7904
0.7958
0.8026
0.807
0.8055
0.7933
0.7751
0.7452
0.7184
0.691
0.6677
0.6434
0.6294
0.6174
0.604
0.1602
0.2793
0.4891
0.6801
0.7934
0.8332
0.8479
0.8452
0.7933
0.6608
0.4162
0.169
0.08233
0.05304
0.04044
0.04119
0.06648
0.1319
0.2309
0.3367
0.4116
0.4316
0.4428
0.4233
0.3594
0.276
0.2082
0.1598
0.1231
0.09449
0.0788
0.07738
0.08838
0.1133
0.1434
0.1685
0.184
0.195
0.2024
0.2087
0.2149
0.223
0.2313
0.2401
0.2462
0.254
0.2645
0.2781
0.2906
0.3002
0.308
0.3133
0.3196
0.3298
0.3413
0.3543
0.3692
0.3835
0.3964
0.4075
0.4178
0.4266
0.4328
0.4364
0.4393
0.4341
0.4268
0.4207
0.4203
0.4234
0.4331
0.4385
0.4405
0.4424
0.4443
0.4473
0.45
0.4533
0.4548
0.4569
0.4575
0.4556
0.4516
0.4465
0.4355
0.4248
0.4132
0.4018
0.3922
0.3842
0.3747
0.3758
0.3845
0.3979
0.4147
0.4282
0.4394
0.4522
0.4667
0.4806
0.4946
0.5074
0.5197
0.5315
0.5433
0.5541
0.5643
0.5743
0.5843
0.594
0.6035
0.613
0.6225
0.6318
0.6409
0.6494
0.6572
0.6644
0.6713
0.6781
0.6844
0.69
0.694
0.6963
0.6975
0.699
0.7016
0.7055
0.7102
0.7148
0.7192
0.7237
0.7282
0.7326
0.7367
0.7403
0.7433
0.7461
0.7495
0.7521
0.7541
0.7564
0.7588
0.7622
0.7664
0.7712
0.7775
0.7829
0.7823
0.7722
0.7483
0.7143
0.6785
0.6482
0.6271
0.6145
0.6036
0.5992
0.5938
0.5794
0.1415
0.243
0.4474
0.6611
0.7942
0.8377
0.8579
0.8634
0.8292
0.7155
0.4891
0.2032
0.1129
0.09844
0.1247
0.1738
0.2583
0.3828
0.4565
0.4864
0.4952
0.4873
0.4626
0.4032
0.2992
0.208
0.1519
0.122
0.1035
0.08859
0.07573
0.07087
0.07502
0.09007
0.1136
0.1408
0.1631
0.1808
0.1946
0.2052
0.2133
0.2208
0.2288
0.2378
0.2467
0.2582
0.2725
0.2857
0.2963
0.3037
0.308
0.3118
0.3191
0.326
0.3343
0.344
0.3555
0.3673
0.3801
0.3927
0.4047
0.4154
0.4238
0.4299
0.4358
0.4282
0.416
0.4017
0.3937
0.3916
0.4005
0.4042
0.4048
0.4056
0.4065
0.4083
0.4091
0.4089
0.4073
0.4055
0.4015
0.3974
0.3926
0.3867
0.3758
0.3633
0.3479
0.3348
0.3232
0.3135
0.3045
0.308
0.321
0.3427
0.3676
0.3879
0.401
0.417
0.4354
0.4525
0.4686
0.4824
0.4951
0.507
0.519
0.5308
0.5428
0.5547
0.566
0.5768
0.5873
0.5978
0.6083
0.6188
0.6283
0.6371
0.6451
0.6528
0.6601
0.6675
0.6744
0.6804
0.6848
0.6877
0.6889
0.69
0.6922
0.6954
0.6996
0.7042
0.7083
0.7127
0.7173
0.7217
0.7247
0.7264
0.727
0.7275
0.7295
0.731
0.732
0.7328
0.7338
0.7356
0.7393
0.7436
0.7479
0.7479
0.7387
0.7175
0.6815
0.6429
0.6121
0.5934
0.5852
0.5814
0.5747
0.5665
0.5567
0.5399
0.1268
0.2158
0.4155
0.6462
0.7965
0.8431
0.8642
0.871
0.8478
0.7533
0.5447
0.2507
0.1479
0.1619
0.2865
0.4609
0.5463
0.5857
0.5746
0.5453
0.5167
0.4795
0.4126
0.3011
0.1899
0.1162
0.0825
0.0711
0.07192
0.07484
0.07418
0.06896
0.06885
0.07584
0.09073
0.1128
0.1362
0.159
0.1789
0.1918
0.1989
0.2035
0.2087
0.2162
0.2275
0.2417
0.2581
0.2741
0.2875
0.2973
0.3029
0.3078
0.313
0.3168
0.3207
0.3267
0.3356
0.3465
0.3596
0.3743
0.3895
0.4047
0.418
0.4291
0.4391
0.4322
0.4135
0.3899
0.3696
0.3586
0.3647
0.3678
0.3678
0.3673
0.3665
0.3644
0.3619
0.3568
0.35
0.343
0.3342
0.3261
0.3176
0.3078
0.2957
0.284
0.2709
0.2611
0.2524
0.2437
0.2383
0.2482
0.2681
0.2972
0.3261
0.3478
0.3612
0.3792
0.3997
0.4194
0.437
0.4523
0.4669
0.4811
0.4955
0.5099
0.5241
0.5377
0.5502
0.5619
0.5734
0.5848
0.5963
0.6072
0.617
0.626
0.6349
0.6438
0.6523
0.6605
0.6675
0.6733
0.6778
0.6816
0.6838
0.6848
0.6858
0.6874
0.6896
0.6932
0.6959
0.6984
0.7009
0.7037
0.7047
0.7049
0.7036
0.7023
0.7027
0.7031
0.7024
0.7009
0.7005
0.7007
0.7036
0.7045
0.7028
0.6933
0.6729
0.6383
0.6037
0.5749
0.5598
0.5558
0.5539
0.5473
0.5357
0.5222
0.5064
0.4859
0.1234
0.2038
0.4002
0.6413
0.7946
0.8426
0.8665
0.8725
0.8559
0.7882
0.6293
0.3782
0.2343
0.274
0.4777
0.6264
0.6703
0.659
0.6078
0.5396
0.4788
0.3909
0.2701
0.1667
0.09297
0.05389
0.03944
0.0381
0.04641
0.05888
0.06973
0.0719
0.07015
0.07197
0.08
0.09442
0.1129
0.1338
0.1568
0.1709
0.1766
0.1752
0.1754
0.1797
0.1913
0.2055
0.2225
0.2404
0.2571
0.2704
0.2786
0.2842
0.2875
0.2891
0.2907
0.2943
0.3008
0.3099
0.3216
0.3376
0.3577
0.3786
0.3974
0.4135
0.428
0.422
0.4016
0.3705
0.3429
0.3273
0.3309
0.3326
0.3312
0.3283
0.324
0.318
0.3114
0.3024
0.2928
0.2839
0.2744
0.2662
0.2574
0.2478
0.2352
0.224
0.2119
0.203
0.1965
0.1928
0.1937
0.2078
0.2308
0.2614
0.2897
0.3103
0.3224
0.3391
0.3603
0.383
0.4039
0.4225
0.4403
0.4578
0.4749
0.4915
0.5075
0.5229
0.5369
0.5498
0.5622
0.5745
0.5865
0.5981
0.6087
0.6182
0.6276
0.6371
0.646
0.6543
0.6613
0.6666
0.671
0.676
0.6796
0.6819
0.6814
0.6805
0.6787
0.6783
0.6772
0.6766
0.6761
0.677
0.6761
0.6749
0.6714
0.6688
0.6679
0.6675
0.6662
0.6642
0.6627
0.6593
0.6572
0.6504
0.6388
0.6171
0.584
0.5497
0.5231
0.509
0.5072
0.5097
0.5064
0.4979
0.4827
0.4642
0.4414
0.4168
0.1188
0.1915
0.3843
0.6366
0.7908
0.8402
0.867
0.8745
0.8626
0.8164
0.7011
0.516
0.389
0.4528