/*--------------------------------*- C++ -*----------------------------------*\
| =========                 |                                                 |
| \\      /  F ield         | OpenFOAM: The Open Source CFD Toolbox           |
|  \\    /   O peration     | Version:  5.x                                   |
|   \\  /    A nd           | Web:      www.OpenFOAM.org                      |
|    \\/     M anipulation  |                                                 |
\*---------------------------------------------------------------------------*/
FoamFile
{
    version     2.0;
    format      ascii;
    class       volVectorField;
    location    "50";
    object      U;
}
// * * * * * * * * * * * * * * * * * * * * * * * * * * * * * * * * * * * * * //

dimensions      [0 1 -1 0 0 0 0];

internalField   nonuniform List<vector> 
86400
(
(6.238e-06 -6.2e-06 0)
(2.204e-05 -7.024e-06 0)
(3.87e-05 -6.88e-06 0)
(5.447e-05 -6.228e-06 0)
(7.034e-05 -5.691e-06 0)
(8.854e-05 -5.777e-06 0)
(0.0001125 -6.595e-06 0)
(0.0001497 -8.908e-06 0)
(0.0002139 -1.357e-05 0)
(0.0003131 -1.984e-05 0)
(0.0004549 -2.781e-05 0)
(0.0006317 -3.5e-05 0)
(0.0008356 -3.976e-05 0)
(0.001043 -3.962e-05 0)
(0.001244 -3.496e-05 0)
(0.001417 -2.672e-05 0)
(0.001559 -1.716e-05 0)
(0.001654 -6.796e-06 0)
(0.001718 1.236e-06 0)
(0.001754 4.316e-06 0)
(0.001776 4.873e-06 0)
(0.001781 4.737e-06 0)
(0.001773 4.473e-06 0)
(0.001747 4.73e-06 0)
(0.001712 5.695e-06 0)
(0.001669 6.887e-06 0)
(0.001614 8.5e-06 0)
(0.001552 9.943e-06 0)
(0.001482 1.066e-05 0)
(0.001412 1.012e-05 0)
(0.001343 8.661e-06 0)
(0.001282 7.129e-06 0)
(0.001227 6.019e-06 0)
(0.001178 5.838e-06 0)
(0.001131 6.725e-06 0)
(0.001088 7.593e-06 0)
(0.001041 8.107e-06 0)
(0.000995 8.701e-06 0)
(0.0009461 8.716e-06 0)
(0.0009045 7.695e-06 0)
(0.0008688 6.052e-06 0)
(0.0008468 4.199e-06 0)
(0.0008297 1.909e-06 0)
(0.0008178 1.277e-08 0)
(0.0008157 -1.326e-06 0)
(0.0008181 -2.236e-06 0)
(0.0008262 -2.363e-06 0)
(0.0008321 -1.55e-06 0)
(0.0008374 -5.541e-07 0)
(0.000837 3.979e-07 0)
(0.0008377 1.163e-06 0)
(0.0008386 1.308e-06 0)
(0.0008409 1.019e-06 0)
(0.0008459 2.763e-07 0)
(0.0008528 -3.913e-07 0)
(0.0008658 -9.874e-07 0)
(0.0008825 -1.562e-06 0)
(0.0009048 -2.183e-06 0)
(0.0009311 -2.873e-06 0)
(0.0009637 -3.771e-06 0)
(0.0009967 -4.348e-06 0)
(0.001038 -5.333e-06 0)
(0.001078 -6.371e-06 0)
(0.001125 -6.602e-06 0)
(0.001178 -6.943e-06 0)
(0.001236 -7.939e-06 0)
(0.001296 -8.673e-06 0)
(0.001356 -8.664e-06 0)
(0.001407 -8.023e-06 0)
(0.001451 -6.438e-06 0)
(0.001492 -5.294e-06 0)
(0.001531 -5.418e-06 0)
(0.001571 -7.181e-06 0)
(0.001613 -9.643e-06 0)
(0.001662 -1.159e-05 0)
(0.001714 -1.269e-05 0)
(0.001764 -1.237e-05 0)
(0.001814 -1.104e-05 0)
(0.00186 -9.974e-06 0)
(0.001903 -8.903e-06 0)
(0.001941 -7.261e-06 0)
(0.001975 -5.855e-06 0)
(0.002001 -4.616e-06 0)
(0.002026 -3.582e-06 0)
(0.002048 -3.066e-06 0)
(0.002067 -2.751e-06 0)
(0.002086 -2.54e-06 0)
(0.002105 -2.562e-06 0)
(0.002124 -2.87e-06 0)
(0.002146 -3.602e-06 0)
(0.002169 -4.38e-06 0)
(0.002198 -5.089e-06 0)
(0.00223 -5.773e-06 0)
(0.002265 -6.097e-06 0)
(0.002299 -6.004e-06 0)
(0.002334 -5.771e-06 0)
(0.002365 -5.43e-06 0)
(0.002396 -5.107e-06 0)
(0.002427 -5.153e-06 0)
(0.002459 -5.454e-06 0)
(0.002491 -5.843e-06 0)
(0.002525 -6.219e-06 0)
(0.002561 -6.664e-06 0)
(0.002598 -7.365e-06 0)
(0.002636 -8.136e-06 0)
(0.002678 -8.673e-06 0)
(0.00272 -8.755e-06 0)
(0.002763 -8.189e-06 0)
(0.002802 -7.166e-06 0)
(0.002839 -6.161e-06 0)
(0.002871 -5.371e-06 0)
(0.002902 -4.755e-06 0)
(0.002931 -4.349e-06 0)
(0.002959 -4.133e-06 0)
(0.002987 -4.038e-06 0)
(0.003015 -4.017e-06 0)
(0.003044 -4.073e-06 0)
(0.003075 -4.219e-06 0)
(0.003106 -4.426e-06 0)
(0.003139 -4.665e-06 0)
(0.003173 -4.921e-06 0)
(0.003209 -5.166e-06 0)
(0.003246 -5.387e-06 0)
(0.003285 -5.596e-06 0)
(0.003325 -5.805e-06 0)
(0.003366 -6.015e-06 0)
(0.003409 -6.233e-06 0)
(0.003454 -6.472e-06 0)
(0.0035 -6.742e-06 0)
(0.003548 -7.048e-06 0)
(0.003599 -7.398e-06 0)
(0.003651 -7.875e-06 0)
(0.003707 -8.444e-06 0)
(0.003765 -9.009e-06 0)
(0.003827 -9.546e-06 0)
(0.003893 -1.009e-05 0)
(0.003962 -1.069e-05 0)
(0.004038 -1.154e-05 0)
(0.004119 -1.265e-05 0)
(0.004206 -1.397e-05 0)
(0.004302 -1.557e-05 0)
(0.004409 -1.755e-05 0)
(0.004527 -1.997e-05 0)
(0.004662 -2.285e-05 0)
(0.004813 -2.617e-05 0)
(0.004985 -2.989e-05 0)
(0.005179 -3.411e-05 0)
(0.005402 -3.92e-05 0)
(0.00566 -4.584e-05 0)
(0.005959 -5.452e-05 0)
(0.006315 -6.597e-05 0)
(0.006744 -8.185e-05 0)
(0.007275 -0.0001058 0)
(0.007948 -0.0001442 0)
(0.008835 -0.0002094 0)
(0.01005 -0.0003282 0)
(0.01176 -0.0005575 0)
(0.01426 -0.001023 0)
(0.01872 -0.002423 0)
(0.02622 -0.008685 0)
(7.073e-06 -2.197e-05 0)
(2.79e-05 -2.765e-05 0)
(5.036e-05 -2.796e-05 0)
(7.35e-05 -2.747e-05 0)
(0.0001025 -3.036e-05 0)
(0.0001468 -4.012e-05 0)
(0.000221 -6.071e-05 0)
(0.000352 -0.0001004 0)
(0.0005735 -0.0001629 0)
(0.0008954 -0.0002384 0)
(0.00132 -0.0003139 0)
(0.001804 -0.0003679 0)
(0.002322 -0.0003945 0)
(0.002833 -0.0003907 0)
(0.003328 -0.0003613 0)
(0.003771 -0.0003093 0)
(0.004156 -0.0002425 0)
(0.004447 -0.0001711 0)
(0.004682 -0.0001133 0)
(0.004855 -7.367e-05 0)
(0.004979 -4.107e-05 0)
(0.005044 -7.216e-06 0)
(0.005051 2.817e-05 0)
(0.004991 6.013e-05 0)
(0.004893 8.481e-05 0)
(0.004763 0.0001042 0)
(0.004608 0.0001207 0)
(0.004436 0.0001333 0)
(0.00425 0.0001406 0)
(0.00406 0.0001409 0)
(0.003866 0.0001341 0)
(0.003683 0.0001227 0)
(0.003513 0.0001104 0)
(0.003358 0.0001002 0)
(0.00322 9.374e-05 0)
(0.003099 9.179e-05 0)
(0.002976 9.212e-05 0)
(0.002857 9.222e-05 0)
(0.00274 8.761e-05 0)
(0.002638 7.574e-05 0)
(0.002551 5.871e-05 0)
(0.002493 4.151e-05 0)
(0.002449 2.687e-05 0)
(0.002414 1.367e-05 0)
(0.002397 2.004e-06 0)
(0.002392 -6.687e-06 0)
(0.002397 -1.051e-05 0)
(0.002406 -9.074e-06 0)
(0.002416 -5.059e-06 0)
(0.00242 -2.032e-06 0)
(0.002431 -2.001e-06 0)
(0.002447 -4.284e-06 0)
(0.002468 -8.22e-06 0)
(0.002496 -1.388e-05 0)
(0.002529 -2.148e-05 0)
(0.002579 -3.101e-05 0)
(0.002641 -4.149e-05 0)
(0.002722 -5.159e-05 0)
(0.002814 -6.038e-05 0)
(0.002921 -6.777e-05 0)
(0.003029 -7.397e-05 0)
(0.003155 -8.103e-05 0)
(0.003277 -8.978e-05 0)
(0.003418 -0.0001019 0)
(0.00358 -0.000115 0)
(0.003762 -0.0001229 0)
(0.003934 -0.000121 0)
(0.004099 -0.0001108 0)
(0.004235 -9.691e-05 0)
(0.004355 -8.516e-05 0)
(0.00447 -7.862e-05 0)
(0.004579 -7.749e-05 0)
(0.004686 -8.186e-05 0)
(0.004788 -8.91e-05 0)
(0.004891 -9.515e-05 0)
(0.004992 -9.722e-05 0)
(0.005087 -9.507e-05 0)
(0.005182 -8.985e-05 0)
(0.005275 -8.405e-05 0)
(0.005361 -7.775e-05 0)
(0.005444 -6.949e-05 0)
(0.005522 -6.012e-05 0)
(0.005587 -5.147e-05 0)
(0.005649 -4.51e-05 0)
(0.005706 -4.086e-05 0)
(0.005759 -3.825e-05 0)
(0.005811 -3.718e-05 0)
(0.005864 -3.788e-05 0)
(0.005918 -4.056e-05 0)
(0.005977 -4.549e-05 0)
(0.006039 -5.246e-05 0)
(0.006112 -5.995e-05 0)
(0.006193 -6.584e-05 0)
(0.006278 -6.855e-05 0)
(0.006364 -6.784e-05 0)
(0.006448 -6.508e-05 0)
(0.006527 -6.221e-05 0)
(0.006606 -6.068e-05 0)
(0.006684 -6.082e-05 0)
(0.006763 -6.227e-05 0)
(0.006844 -6.448e-05 0)
(0.006926 -6.705e-05 0)
(0.00701 -6.993e-05 0)
(0.007097 -7.342e-05 0)
(0.007185 -7.748e-05 0)
(0.007277 -8.09e-05 0)
(0.00737 -8.195e-05 0)
(0.007464 -7.958e-05 0)
(0.007555 -7.414e-05 0)
(0.007641 -6.753e-05 0)
(0.00772 -6.182e-05 0)
(0.007796 -5.795e-05 0)
(0.007871 -5.588e-05 0)
(0.007946 -5.529e-05 0)
(0.008022 -5.579e-05 0)
(0.0081 -5.706e-05 0)
(0.00818 -5.889e-05 0)
(0.008265 -6.116e-05 0)
(0.008352 -6.373e-05 0)
(0.008443 -6.65e-05 0)
(0.008538 -6.938e-05 0)
(0.008636 -7.223e-05 0)
(0.008738 -7.499e-05 0)
(0.008844 -7.773e-05 0)
(0.008953 -8.053e-05 0)
(0.009066 -8.347e-05 0)
(0.009183 -8.66e-05 0)
(0.009305 -8.996e-05 0)
(0.009431 -9.358e-05 0)
(0.009563 -9.75e-05 0)
(0.0097 -0.0001018 0)
(0.009842 -0.0001065 0)
(0.009991 -0.000112 0)
(0.01015 -0.0001182 0)
(0.01031 -0.0001254 0)
(0.01049 -0.0001336 0)
(0.01067 -0.000143 0)
(0.01087 -0.0001536 0)
(0.01109 -0.0001658 0)
(0.01132 -0.0001804 0)
(0.01157 -0.0001985 0)
(0.01185 -0.0002209 0)
(0.01216 -0.000248 0)
(0.01251 -0.0002797 0)
(0.01289 -0.0003162 0)
(0.01333 -0.0003586 0)
(0.01382 -0.0004086 0)
(0.01439 -0.0004692 0)
(0.01504 -0.0005446 0)
(0.01579 -0.0006411 0)
(0.01667 -0.0007683 0)
(0.01773 -0.0009406 0)
(0.01902 -0.00118 0)
(0.02062 -0.00152 0)
(0.02263 -0.002016 0)
(0.02518 -0.00276 0)
(0.02846 -0.003917 0)
(0.03268 -0.005796 0)
(0.03836 -0.009044 0)
(0.04513 -0.01554 0)
(7.018e-06 -3.873e-05 0)
(2.938e-05 -5.028e-05 0)
(5.61e-05 -5.297e-05 0)
(8.852e-05 -5.744e-05 0)
(0.0001401 -7.552e-05 0)
(0.0002371 -0.0001199 0)
(0.0004171 -0.0002055 0)
(0.0007322 -0.0003504 0)
(0.001211 -0.0005427 0)
(0.001834 -0.0007409 0)
(0.002569 -0.0009062 0)
(0.003349 -0.001006 0)
(0.004158 -0.001045 0)
(0.004937 -0.001023 0)
(0.005672 -0.0009487 0)
(0.006321 -0.0008289 0)
(0.006882 -0.0006798 0)
(0.007326 -0.0005249 0)
(0.007705 -0.0003917 0)
(0.007983 -0.0002772 0)
(0.008166 -0.0001676 0)
(0.008255 -5.637e-05 0)
(0.008265 5.269e-05 0)
(0.0082 0.0001486 0)
(0.008079 0.0002243 0)
(0.007908 0.0002828 0)
(0.007698 0.000328 0)
(0.00746 0.0003605 0)
(0.007204 0.000379 0)
(0.006943 0.0003829 0)
(0.006683 0.000372 0)
(0.00643 0.000349 0)
(0.006189 0.0003195 0)
(0.005967 0.0002889 0)
(0.005767 0.0002627 0)
(0.005593 0.0002467 0)
(0.00543 0.000239 0)
(0.005279 0.0002317 0)
(0.00514 0.0002158 0)
(0.005021 0.0001868 0)
(0.004919 0.0001483 0)
(0.004842 0.00011 0)
(0.004778 7.781e-05 0)
(0.004728 4.866e-05 0)
(0.004695 2.134e-05 0)
(0.004679 -7.002e-07 0)
(0.004676 -1.414e-05 0)
(0.004683 -1.846e-05 0)
(0.0047 -1.745e-05 0)
(0.004723 -1.829e-05 0)
(0.004757 -2.473e-05 0)
(0.004802 -3.472e-05 0)
(0.004857 -4.702e-05 0)
(0.004924 -6.25e-05 0)
(0.005001 -8.347e-05 0)
(0.0051 -0.0001101 0)
(0.005217 -0.0001399 0)
(0.005356 -0.0001691 0)
(0.005516 -0.0001947 0)
(0.005697 -0.0002157 0)
(0.005887 -0.0002336 0)
(0.0061 -0.0002517 0)
(0.006312 -0.0002739 0)
(0.006546 -0.0003034 0)
(0.006787 -0.0003306 0)
(0.007032 -0.0003415 0)
(0.007267 -0.0003298 0)
(0.007493 -0.0003005 0)
(0.007692 -0.0002655 0)
(0.007874 -0.0002386 0)
(0.008046 -0.0002223 0)
(0.008207 -0.0002131 0)
(0.008355 -0.0002079 0)
(0.008478 -0.0002047 0)
(0.008586 -0.0002017 0)
(0.008679 -0.0001967 0)
(0.008763 -0.000191 0)
(0.008848 -0.0001852 0)
(0.008941 -0.0001788 0)
(0.009029 -0.0001704 0)
(0.00912 -0.0001587 0)
(0.00921 -0.0001436 0)
(0.009295 -0.0001289 0)
(0.009379 -0.0001179 0)
(0.009462 -0.0001104 0)
(0.009543 -0.0001063 0)
(0.009626 -0.0001055 0)
(0.00971 -0.000108 0)
(0.009797 -0.0001137 0)
(0.009888 -0.0001231 0)
(0.00998 -0.0001367 0)
(0.01008 -0.0001518 0)
(0.01018 -0.0001638 0)
(0.01029 -0.00017 0)
(0.0104 -0.0001696 0)
(0.01052 -0.0001652 0)
(0.01063 -0.0001606 0)
(0.01074 -0.0001585 0)
(0.01086 -0.000159 0)
(0.01097 -0.0001612 0)
(0.01109 -0.0001648 0)
(0.0112 -0.0001692 0)
(0.01132 -0.0001736 0)
(0.01143 -0.0001779 0)
(0.01155 -0.0001823 0)
(0.01166 -0.000186 0)
(0.01177 -0.0001869 0)
(0.01188 -0.0001836 0)
(0.01199 -0.0001761 0)
(0.0121 -0.0001664 0)
(0.01221 -0.0001578 0)
(0.01232 -0.0001524 0)
(0.01243 -0.0001506 0)
(0.01255 -0.0001517 0)
(0.01267 -0.0001551 0)
(0.01279 -0.0001602 0)
(0.01292 -0.0001662 0)
(0.01306 -0.0001729 0)
(0.0132 -0.0001799 0)
(0.01335 -0.0001872 0)
(0.0135 -0.0001945 0)
(0.01366 -0.0002019 0)
(0.01382 -0.0002091 0)
(0.01399 -0.0002165 0)
(0.01416 -0.000224 0)
(0.01434 -0.000232 0)
(0.01453 -0.0002406 0)
(0.01472 -0.0002497 0)
(0.01492 -0.0002595 0)
(0.01513 -0.0002699 0)
(0.01534 -0.0002812 0)
(0.01556 -0.0002935 0)
(0.0158 -0.0003074 0)
(0.01604 -0.0003236 0)
(0.0163 -0.0003429 0)
(0.01657 -0.0003654 0)
(0.01686 -0.0003912 0)
(0.01717 -0.0004198 0)
(0.01751 -0.0004522 0)
(0.01787 -0.0004905 0)
(0.01826 -0.0005371 0)
(0.01868 -0.0005939 0)
(0.01915 -0.0006618 0)
(0.01967 -0.0007413 0)
(0.02024 -0.0008336 0)
(0.02089 -0.0009418 0)
(0.02161 -0.00107 0)
(0.02243 -0.001226 0)
(0.02337 -0.001417 0)
(0.02445 -0.001658 0)
(0.02571 -0.00197 0)
(0.02718 -0.00238 0)
(0.02892 -0.002924 0)
(0.03099 -0.003652 0)
(0.03347 -0.004636 0)
(0.03643 -0.00598 0)
(0.03994 -0.007851 0)
(0.04404 -0.01052 0)
(0.04869 -0.01444 0)
(0.05329 -0.02042 0)
(6.702e-06 -5.543e-05 0)
(3.258e-05 -7.625e-05 0)
(7.045e-05 -8.711e-05 0)
(0.0001286 -0.0001099 0)
(0.0002414 -0.0001752 0)
(0.0004668 -0.0003157 0)
(0.0008624 -0.000554 0)
(0.001477 -0.0008912 0)
(0.002288 -0.001263 0)
(0.003239 -0.001591 0)
(0.004271 -0.001829 0)
(0.005327 -0.001956 0)
(0.006385 -0.001981 0)
(0.007365 -0.001901 0)
(0.008253 -0.001737 0)
(0.009011 -0.00151 0)
(0.009644 -0.001248 0)
(0.01015 -0.0009836 0)
(0.01055 -0.0007428 0)
(0.01082 -0.00052 0)
(0.01099 -0.0003085 0)
(0.01106 -0.0001066 0)
(0.01106 8.082e-05 0)
(0.011 0.0002448 0)
(0.01087 0.000379 0)
(0.0107 0.0004845 0)
(0.01049 0.0005635 0)
(0.01026 0.0006173 0)
(0.01002 0.0006465 0)
(0.009777 0.0006532 0)
(0.009536 0.0006395 0)
(0.0093 0.0006087 0)
(0.00907 0.0005655 0)
(0.008854 0.0005158 0)
(0.008655 0.0004671 0)
(0.00848 0.0004281 0)
(0.008328 0.0004001 0)
(0.008198 0.0003742 0)
(0.008091 0.0003397 0)
(0.008006 0.0002925 0)
(0.007935 0.0002365 0)
(0.007878 0.000182 0)
(0.00783 0.0001351 0)
(0.007793 9.244e-05 0)
(0.007764 5.147e-05 0)
(0.007746 1.531e-05 0)
(0.007741 -1.254e-05 0)
(0.007751 -3.179e-05 0)
(0.007781 -4.585e-05 0)
(0.00783 -6.113e-05 0)
(0.007895 -8.104e-05 0)
(0.007976 -0.0001042 0)
(0.00807 -0.0001301 0)
(0.008181 -0.0001608 0)
(0.008307 -0.0001998 0)
(0.008455 -0.0002471 0)
(0.008621 -0.0002988 0)
(0.008808 -0.0003505 0)
(0.009014 -0.0003976 0)
(0.009239 -0.0004373 0)
(0.009479 -0.0004712 0)
(0.009736 -0.0005021 0)
(0.009997 -0.0005344 0)
(0.01026 -0.0005691 0)
(0.01052 -0.0005949 0)
(0.01078 -0.000599 0)
(0.01102 -0.0005765 0)
(0.01126 -0.0005327 0)
(0.01148 -0.0004816 0)
(0.01169 -0.0004383 0)
(0.01188 -0.0004053 0)
(0.01205 -0.0003776 0)
(0.0122 -0.0003509 0)
(0.01233 -0.000325 0)
(0.01244 -0.0003019 0)
(0.01253 -0.000283 0)
(0.01261 -0.0002709 0)
(0.01268 -0.0002654 0)
(0.01276 -0.0002616 0)
(0.01283 -0.0002561 0)
(0.01292 -0.0002473 0)
(0.01301 -0.0002346 0)
(0.0131 -0.0002216 0)
(0.0132 -0.0002114 0)
(0.0133 -0.0002045 0)
(0.0134 -0.0002015 0)
(0.01351 -0.0002027 0)
(0.01362 -0.0002074 0)
(0.01373 -0.0002155 0)
(0.01384 -0.0002274 0)
(0.01395 -0.0002434 0)
(0.01406 -0.0002615 0)
(0.01418 -0.0002771 0)
(0.0143 -0.0002869 0)
(0.01442 -0.0002901 0)
(0.01455 -0.0002887 0)
(0.01468 -0.0002867 0)
(0.01481 -0.0002864 0)
(0.01495 -0.000288 0)
(0.01509 -0.0002907 0)
(0.01522 -0.0002942 0)
(0.01536 -0.0002979 0)
(0.01549 -0.0003006 0)
(0.01562 -0.0003016 0)
(0.01575 -0.0003016 0)
(0.01586 -0.0003012 0)
(0.01598 -0.0003 0)
(0.0161 -0.0002973 0)
(0.01621 -0.0002929 0)
(0.01634 -0.0002875 0)
(0.01648 -0.0002832 0)
(0.01662 -0.0002822 0)
(0.01677 -0.000285 0)
(0.01692 -0.0002914 0)
(0.01708 -0.0003007 0)
(0.01725 -0.0003121 0)
(0.01743 -0.0003248 0)
(0.01762 -0.000338 0)
(0.01781 -0.0003514 0)
(0.01801 -0.0003649 0)
(0.01821 -0.0003782 0)
(0.01843 -0.0003915 0)
(0.01864 -0.0004049 0)
(0.01887 -0.0004184 0)
(0.0191 -0.0004325 0)
(0.01934 -0.0004473 0)
(0.01959 -0.0004631 0)
(0.01985 -0.00048 0)
(0.02011 -0.0004981 0)
(0.02039 -0.0005176 0)
(0.02067 -0.0005388 0)
(0.02097 -0.0005619 0)
(0.02128 -0.000588 0)
(0.0216 -0.0006183 0)
(0.02194 -0.0006538 0)
(0.0223 -0.0006954 0)
(0.02268 -0.0007429 0)
(0.02308 -0.0007963 0)
(0.02352 -0.000857 0)
(0.02398 -0.0009278 0)
(0.02449 -0.001012 0)
(0.02503 -0.001112 0)
(0.02563 -0.00123 0)
(0.02628 -0.001369 0)
(0.02699 -0.001531 0)
(0.02778 -0.001722 0)
(0.02867 -0.001949 0)
(0.02966 -0.002221 0)
(0.03079 -0.002553 0)
(0.03206 -0.002963 0)
(0.03351 -0.003479 0)
(0.03517 -0.004134 0)
(0.03707 -0.00497 0)
(0.03924 -0.00604 0)
(0.04172 -0.007414 0)
(0.04453 -0.009181 0)
(0.04765 -0.01147 0)
(0.05102 -0.01445 0)
(0.05445 -0.01836 0)
(0.05747 -0.02346 0)
(7.214e-06 -7.536e-05 0)
(4.433e-05 -0.0001159 0)
(0.0001116 -0.0001514 0)
(0.0002342 -0.0002288 0)
(0.0004804 -0.0004122 0)
(0.0009262 -0.0007436 0)
(0.001608 -0.001215 0)
(0.002535 -0.001777 0)
(0.003636 -0.002311 0)
(0.004839 -0.002731 0)
(0.006094 -0.003007 0)
(0.007344 -0.003125 0)
(0.00855 -0.003089 0)
(0.009639 -0.002902 0)
(0.01059 -0.002602 0)
(0.01137 -0.002229 0)
(0.01199 -0.001825 0)
(0.01246 -0.00143 0)
(0.01282 -0.001064 0)
(0.01304 -0.0007265 0)
(0.01317 -0.0004175 0)
(0.01321 -0.0001357 0)
(0.0132 0.000118 0)
(0.01313 0.0003388 0)
(0.01302 0.0005218 0)
(0.01287 0.0006651 0)
(0.01271 0.0007686 0)
(0.01252 0.0008348 0)
(0.01234 0.0008681 0)
(0.01216 0.0008737 0)
(0.01198 0.0008563 0)
(0.01181 0.0008198 0)
(0.01164 0.0007679 0)
(0.01148 0.0007054 0)
(0.01134 0.0006391 0)
(0.01121 0.000577 0)
(0.0111 0.0005223 0)
(0.01102 0.0004698 0)
(0.01096 0.0004126 0)
(0.01092 0.0003488 0)
(0.0109 0.0002818 0)
(0.01088 0.0002185 0)
(0.01087 0.0001631 0)
(0.01086 0.0001126 0)
(0.01087 6.342e-05 0)
(0.01088 1.661e-05 0)
(0.0109 -2.542e-05 0)
(0.01094 -6.247e-05 0)
(0.01099 -9.654e-05 0)
(0.01107 -0.0001308 0)
(0.01115 -0.0001675 0)
(0.01126 -0.0002064 0)
(0.01138 -0.0002487 0)
(0.01152 -0.000297 0)
(0.01168 -0.0003543 0)
(0.01185 -0.0004198 0)
(0.01204 -0.0004898 0)
(0.01225 -0.0005596 0)
(0.01247 -0.0006244 0)
(0.01271 -0.0006813 0)
(0.01296 -0.0007301 0)
(0.01322 -0.0007711 0)
(0.01349 -0.0008063 0)
(0.01376 -0.0008354 0)
(0.01401 -0.0008503 0)
(0.01425 -0.000843 0)
(0.01448 -0.0008112 0)
(0.0147 -0.0007596 0)
(0.01492 -0.0006991 0)
(0.01512 -0.0006414 0)
(0.01531 -0.0005893 0)
(0.01549 -0.0005401 0)
(0.01564 -0.0004911 0)
(0.01577 -0.0004434 0)
(0.01588 -0.0004007 0)
(0.01598 -0.0003674 0)
(0.01607 -0.0003474 0)
(0.01615 -0.0003397 0)
(0.01624 -0.0003382 0)
(0.01633 -0.0003374 0)
(0.01642 -0.000335 0)
(0.01652 -0.00033 0)
(0.01663 -0.0003238 0)
(0.01675 -0.0003187 0)
(0.01686 -0.0003156 0)
(0.01698 -0.0003156 0)
(0.01711 -0.0003193 0)
(0.01723 -0.0003261 0)
(0.01736 -0.000336 0)
(0.01749 -0.0003487 0)
(0.01762 -0.0003646 0)
(0.01775 -0.0003824 0)
(0.01788 -0.0003991 0)
(0.01801 -0.0004122 0)
(0.01814 -0.0004207 0)
(0.01828 -0.0004254 0)
(0.01843 -0.0004284 0)
(0.01858 -0.0004314 0)
(0.01873 -0.0004345 0)
(0.01888 -0.0004371 0)
(0.01903 -0.0004389 0)
(0.01917 -0.0004391 0)
(0.01932 -0.0004371 0)
(0.01945 -0.0004326 0)
(0.01958 -0.0004271 0)
(0.01971 -0.0004226 0)
(0.01984 -0.0004206 0)
(0.01997 -0.0004213 0)
(0.02011 -0.0004241 0)
(0.02025 -0.0004283 0)
(0.02041 -0.0004343 0)
(0.02058 -0.0004429 0)
(0.02076 -0.0004549 0)
(0.02095 -0.0004701 0)
(0.02116 -0.000488 0)
(0.02137 -0.0005078 0)
(0.02159 -0.0005289 0)
(0.02181 -0.0005503 0)
(0.02205 -0.0005716 0)
(0.0223 -0.0005927 0)
(0.02255 -0.0006135 0)
(0.02281 -0.0006341 0)
(0.02308 -0.0006548 0)
(0.02336 -0.0006758 0)
(0.02365 -0.0006976 0)
(0.02394 -0.0007205 0)
(0.02424 -0.0007447 0)
(0.02455 -0.0007707 0)
(0.02488 -0.0007987 0)
(0.02521 -0.0008292 0)
(0.02555 -0.0008624 0)
(0.02591 -0.000899 0)
(0.02628 -0.0009401 0)
(0.02667 -0.0009872 0)
(0.02708 -0.001042 0)
(0.02751 -0.001105 0)
(0.02796 -0.001177 0)
(0.02844 -0.001259 0)
(0.02895 -0.001352 0)
(0.02949 -0.00146 0)
(0.03008 -0.001586 0)
(0.03071 -0.001733 0)
(0.03139 -0.001906 0)
(0.03212 -0.002108 0)
(0.03293 -0.002344 0)
(0.03381 -0.002622 0)
(0.03479 -0.002951 0)
(0.03587 -0.003343 0)
(0.03707 -0.003813 0)
(0.03841 -0.004383 0)
(0.03991 -0.005081 0)
(0.04157 -0.005941 0)
(0.04342 -0.007003 0)
(0.04547 -0.008315 0)
(0.0477 -0.009935 0)
(0.05012 -0.01193 0)
(0.05266 -0.01437 0)
(0.05522 -0.01737 0)
(0.05763 -0.021 0)
(0.05956 -0.02533 0)
(9.397e-06 -0.0001035 0)
(7.04e-05 -0.0001862 0)
(0.000196 -0.0002843 0)
(0.0004349 -0.0004838 0)
(0.0008728 -0.0008705 0)
(0.001556 -0.001448 0)
(0.002489 -0.002163 0)
(0.003645 -0.002918 0)
(0.004943 -0.003575 0)
(0.00631 -0.004052 0)
(0.00771 -0.004338 0)
(0.009078 -0.004414 0)
(0.01035 -0.004277 0)
(0.01148 -0.003944 0)
(0.01242 -0.003471 0)
(0.01316 -0.002919 0)
(0.01372 -0.00235 0)
(0.01411 -0.00181 0)
(0.01437 -0.001317 0)
(0.01452 -0.0008734 0)
(0.01458 -0.0004822 0)
(0.01459 -0.0001392 0)
(0.01456 0.0001616 0)
(0.0145 0.0004211 0)
(0.01442 0.0006356 0)
(0.01433 0.0008011 0)
(0.01422 0.0009155 0)
(0.01411 0.0009838 0)
(0.01402 0.001014 0)
(0.01393 0.001014 0)
(0.01384 0.0009914 0)
(0.01377 0.0009498 0)
(0.01369 0.0008926 0)
(0.01362 0.0008234 0)
(0.01355 0.0007468 0)
(0.01348 0.0006688 0)
(0.01343 0.0005918 0)
(0.0134 0.0005145 0)
(0.01339 0.0004357 0)
(0.01339 0.0003567 0)
(0.01341 0.0002808 0)
(0.01343 0.0002121 0)
(0.01345 0.0001514 0)
(0.01349 9.502e-05 0)
(0.01352 3.93e-05 0)
(0.01356 -1.608e-05 0)
(0.01362 -6.96e-05 0)
(0.01368 -0.0001211 0)
(0.01376 -0.0001717 0)
(0.01385 -0.0002231 0)
(0.01397 -0.0002766 0)
(0.0141 -0.0003329 0)
(0.01425 -0.0003935 0)
(0.01442 -0.0004605 0)
(0.0146 -0.0005351 0)
(0.01481 -0.0006159 0)
(0.01502 -0.0006994 0)
(0.01525 -0.000782 0)
(0.01549 -0.0008598 0)
(0.01573 -0.0009295 0)
(0.01599 -0.0009889 0)
(0.01624 -0.001036 0)
(0.0165 -0.001069 0)
(0.01675 -0.001088 0)
(0.01699 -0.00109 0)
(0.01721 -0.00107 0)
(0.01742 -0.001029 0)
(0.01763 -0.0009708 0)
(0.01782 -0.0009034 0)
(0.01802 -0.0008347 0)
(0.0182 -0.0007675 0)
(0.01837 -0.0007012 0)
(0.01852 -0.0006348 0)
(0.01867 -0.0005705 0)
(0.0188 -0.0005136 0)
(0.01892 -0.0004702 0)
(0.01903 -0.0004446 0)
(0.01915 -0.0004353 0)
(0.01926 -0.0004353 0)
(0.01937 -0.0004382 0)
(0.01949 -0.0004409 0)
(0.01961 -0.0004421 0)
(0.01974 -0.0004422 0)
(0.01987 -0.0004423 0)
(0.02001 -0.0004435 0)
(0.02014 -0.0004468 0)
(0.02028 -0.0004528 0)
(0.02043 -0.0004614 0)
(0.02057 -0.0004725 0)
(0.02071 -0.0004857 0)
(0.02086 -0.0005012 0)
(0.021 -0.0005184 0)
(0.02114 -0.0005357 0)
(0.02129 -0.0005512 0)
(0.02143 -0.0005637 0)
(0.02158 -0.0005732 0)
(0.02174 -0.0005805 0)
(0.02189 -0.0005861 0)
(0.02205 -0.00059 0)
(0.0222 -0.0005914 0)
(0.02236 -0.00059 0)
(0.0225 -0.0005854 0)
(0.02265 -0.0005781 0)
(0.02279 -0.0005691 0)
(0.02293 -0.000561 0)
(0.02307 -0.0005567 0)
(0.02321 -0.0005581 0)
(0.02336 -0.0005656 0)
(0.02352 -0.000578 0)
(0.0237 -0.0005941 0)
(0.02388 -0.0006128 0)
(0.02408 -0.0006339 0)
(0.02429 -0.0006577 0)
(0.02452 -0.000684 0)
(0.02475 -0.0007124 0)
(0.025 -0.0007424 0)
(0.02526 -0.0007731 0)
(0.02552 -0.000804 0)
(0.0258 -0.0008345 0)
(0.02609 -0.0008645 0)
(0.02638 -0.0008938 0)
(0.02669 -0.0009229 0)
(0.027 -0.000952 0)
(0.02732 -0.0009815 0)
(0.02765 -0.001012 0)
(0.02799 -0.001044 0)
(0.02834 -0.001077 0)
(0.0287 -0.001113 0)
(0.02907 -0.001152 0)
(0.02945 -0.001195 0)
(0.02985 -0.001241 0)
(0.03026 -0.001293 0)
(0.03068 -0.00135 0)
(0.03112 -0.001416 0)
(0.03158 -0.00149 0)
(0.03206 -0.001576 0)
(0.03257 -0.001673 0)
(0.0331 -0.001784 0)
(0.03366 -0.001911 0)
(0.03426 -0.002056 0)
(0.0349 -0.002225 0)
(0.03558 -0.00242 0)
(0.0363 -0.002647 0)
(0.03709 -0.002912 0)
(0.03794 -0.00322 0)
(0.03886 -0.003581 0)
(0.03986 -0.004004 0)
(0.04096 -0.004503 0)
(0.04216 -0.005094 0)
(0.04347 -0.005797 0)
(0.0449 -0.006638 0)
(0.04645 -0.007649 0)
(0.04813 -0.008864 0)
(0.04993 -0.01032 0)
(0.05182 -0.01207 0)
(0.05378 -0.01414 0)
(0.05574 -0.01658 0)
(0.0576 -0.01944 0)
(0.05921 -0.02274 0)
(0.06038 -0.02644 0)
(1.266e-05 -0.000147 0)
(0.0001109 -0.0003078 0)
(0.0003201 -0.0005201 0)
(0.0006987 -0.0009026 0)
(0.001319 -0.001532 0)
(0.002194 -0.002362 0)
(0.003316 -0.003307 0)
(0.004634 -0.004228 0)
(0.006065 -0.004981 0)
(0.007544 -0.005497 0)
(0.009033 -0.005769 0)
(0.01045 -0.005764 0)
(0.01172 -0.005485 0)
(0.01281 -0.004967 0)
(0.01368 -0.004288 0)
(0.01432 -0.003531 0)
(0.01476 -0.002775 0)
(0.01502 -0.00208 0)
(0.01515 -0.001466 0)
(0.01518 -0.0009367 0)
(0.01517 -0.0004907 0)
(0.01513 -0.0001167 0)
(0.01509 0.000202 0)
(0.01506 0.0004746 0)
(0.01503 0.0007 0)
(0.01501 0.0008698 0)
(0.01499 0.0009793 0)
(0.015 0.001036 0)
(0.01502 0.001054 0)
(0.01506 0.001045 0)
(0.0151 0.001016 0)
(0.01515 0.0009729 0)
(0.01519 0.0009165 0)
(0.01523 0.000849 0)
(0.01526 0.0007729 0)
(0.01528 0.0006911 0)
(0.0153 0.0006043 0)
(0.01533 0.0005129 0)
(0.01536 0.0004194 0)
(0.0154 0.0003288 0)
(0.01545 0.0002456 0)
(0.0155 0.0001722 0)
(0.01556 0.0001074 0)
(0.01562 4.632e-05 0)
(0.01568 -1.494e-05 0)
(0.01575 -7.741e-05 0)
(0.01583 -0.0001407 0)
(0.01591 -0.0002048 0)
(0.01601 -0.0002705 0)
(0.01613 -0.0003387 0)
(0.01627 -0.0004103 0)
(0.01642 -0.0004862 0)
(0.0166 -0.000567 0)
(0.01679 -0.0006534 0)
(0.017 -0.0007447 0)
(0.01723 -0.0008384 0)
(0.01747 -0.0009316 0)
(0.01771 -0.001022 0)
(0.01796 -0.001106 0)
(0.01821 -0.001181 0)
(0.01846 -0.001242 0)
(0.0187 -0.001287 0)
(0.01894 -0.001313 0)
(0.01916 -0.00132 0)
(0.01938 -0.001308 0)
(0.01958 -0.001276 0)
(0.01977 -0.001227 0)
(0.01995 -0.001163 0)
(0.02014 -0.001091 0)
(0.02032 -0.001016 0)
(0.02049 -0.0009407 0)
(0.02066 -0.0008646 0)
(0.02083 -0.0007885 0)
(0.02099 -0.0007158 0)
(0.02115 -0.0006525 0)
(0.0213 -0.000605 0)
(0.02145 -0.0005767 0)
(0.02161 -0.0005656 0)
(0.02176 -0.0005649 0)
(0.0219 -0.0005684 0)
(0.02205 -0.0005731 0)
(0.0222 -0.0005777 0)
(0.02235 -0.0005817 0)
(0.0225 -0.0005854 0)
(0.02266 -0.0005896 0)
(0.02281 -0.0005951 0)
(0.02297 -0.0006024 0)
(0.02313 -0.0006118 0)
(0.02328 -0.0006231 0)
(0.02344 -0.0006362 0)
(0.0236 -0.0006511 0)
(0.02375 -0.0006677 0)
(0.02391 -0.0006849 0)
(0.02406 -0.0007013 0)
(0.02421 -0.0007159 0)
(0.02437 -0.000728 0)
(0.02452 -0.0007373 0)
(0.02468 -0.0007436 0)
(0.02484 -0.0007464 0)
(0.02499 -0.000745 0)
(0.02514 -0.0007396 0)
(0.02528 -0.0007308 0)
(0.02542 -0.0007204 0)
(0.02557 -0.0007109 0)
(0.02571 -0.0007055 0)
(0.02587 -0.0007069 0)
(0.02603 -0.0007165 0)
(0.02621 -0.0007341 0)
(0.02639 -0.0007582 0)
(0.02659 -0.0007871 0)
(0.02681 -0.0008193 0)
(0.02703 -0.000854 0)
(0.02727 -0.0008908 0)
(0.02753 -0.0009296 0)
(0.02779 -0.0009698 0)
(0.02807 -0.001011 0)
(0.02836 -0.001052 0)
(0.02866 -0.001094 0)
(0.02897 -0.001134 0)
(0.02929 -0.001174 0)
(0.02962 -0.001213 0)
(0.02997 -0.001251 0)
(0.03032 -0.00129 0)
(0.03068 -0.001329 0)
(0.03105 -0.001368 0)
(0.03143 -0.00141 0)
(0.03182 -0.001453 0)
(0.03222 -0.0015 0)
(0.03263 -0.001551 0)
(0.03305 -0.001605 0)
(0.03348 -0.001666 0)
(0.03393 -0.001732 0)
(0.0344 -0.001806 0)
(0.03488 -0.00189 0)
(0.03538 -0.001984 0)
(0.0359 -0.002092 0)
(0.03644 -0.002214 0)
(0.03701 -0.002352 0)
(0.0376 -0.00251 0)
(0.03823 -0.002691 0)
(0.03889 -0.0029 0)
(0.03959 -0.003141 0)
(0.04034 -0.003419 0)
(0.04114 -0.00374 0)
(0.04199 -0.004113 0)
(0.04291 -0.004546 0)
(0.04389 -0.005049 0)
(0.04495 -0.005635 0)
(0.04608 -0.006321 0)
(0.0473 -0.007123 0)
(0.0486 -0.008066 0)
(0.04998 -0.009174 0)
(0.05144 -0.01048 0)
(0.05294 -0.01201 0)
(0.05448 -0.01379 0)
(0.056 -0.01585 0)
(0.05744 -0.0182 0)
(0.05872 -0.02085 0)
(0.05973 -0.02381 0)
(0.06034 -0.027 0)
(1.668e-05 -0.0002154 0)
(0.0001633 -0.0005021 0)
(0.0004675 -0.0008768 0)
(0.0009799 -0.001479 0)
(0.00175 -0.002361 0)
(0.002773 -0.00344 0)
(0.004035 -0.004596 0)
(0.005465 -0.005659 0)
(0.006987 -0.006489 0)
(0.008533 -0.007022 0)
(0.01004 -0.007236 0)
(0.01142 -0.007101 0)
(0.01261 -0.006635 0)
(0.01358 -0.0059 0)
(0.01431 -0.004989 0)
(0.0148 -0.004007 0)
(0.01507 -0.003051 0)
(0.01516 -0.002194 0)
(0.01511 -0.001471 0)
(0.01501 -0.0008856 0)
(0.01489 -0.0004269 0)
(0.0148 -6.77e-05 0)
(0.01476 0.0002257 0)
(0.01477 0.0004764 0)
(0.01482 0.0006871 0)
(0.0149 0.000841 0)
(0.01501 0.0009269 0)
(0.01516 0.0009574 0)
(0.01534 0.0009534 0)
(0.01554 0.0009309 0)
(0.01575 0.0008988 0)
(0.01595 0.0008597 0)
(0.01614 0.0008129 0)
(0.01631 0.0007578 0)
(0.01646 0.0006946 0)
(0.01659 0.0006235 0)
(0.0167 0.0005434 0)
(0.0168 0.0004546 0)
(0.01689 0.0003608 0)
(0.01697 0.0002686 0)
(0.01705 0.0001835 0)
(0.01713 0.0001077 0)
(0.0172 3.907e-05 0)
(0.01729 -2.692e-05 0)
(0.01737 -9.363e-05 0)
(0.01746 -0.0001628 0)
(0.01756 -0.000235 0)
(0.01767 -0.0003107 0)
(0.01779 -0.0003907 0)
(0.01793 -0.0004755 0)
(0.01808 -0.0005658 0)
(0.01826 -0.0006617 0)
(0.01845 -0.0007628 0)
(0.01866 -0.0008677 0)
(0.01888 -0.0009739 0)
(0.01912 -0.001078 0)
(0.01937 -0.001178 0)
(0.01961 -0.001272 0)
(0.01986 -0.001356 0)
(0.02011 -0.001428 0)
(0.02034 -0.001483 0)
(0.02057 -0.001518 0)
(0.02078 -0.001532 0)
(0.02098 -0.001526 0)
(0.02116 -0.0015 0)
(0.02134 -0.001459 0)
(0.02152 -0.001405 0)
(0.02169 -0.00134 0)
(0.02186 -0.001268 0)
(0.02204 -0.001193 0)
(0.02222 -0.001116 0)
(0.0224 -0.001038 0)
(0.02259 -0.0009608 0)
(0.02277 -0.0008881 0)
(0.02296 -0.0008257 0)
(0.02316 -0.0007787 0)
(0.02335 -0.0007492 0)
(0.02354 -0.000735 0)
(0.02373 -0.0007308 0)
(0.02391 -0.0007319 0)
(0.02409 -0.0007354 0)
(0.02426 -0.0007402 0)
(0.02444 -0.0007453 0)
(0.02461 -0.0007502 0)
(0.02479 -0.0007552 0)
(0.02496 -0.0007607 0)
(0.02514 -0.0007675 0)
(0.02531 -0.0007759 0)
(0.02548 -0.0007861 0)
(0.02565 -0.0007981 0)
(0.02581 -0.0008118 0)
(0.02597 -0.0008271 0)
(0.02614 -0.0008433 0)
(0.0263 -0.0008591 0)
(0.02646 -0.0008734 0)
(0.02661 -0.0008852 0)
(0.02677 -0.0008934 0)
(0.02692 -0.0008973 0)
(0.02706 -0.0008966 0)
(0.02721 -0.0008913 0)
(0.02735 -0.0008825 0)
(0.02748 -0.0008723 0)
(0.02762 -0.0008635 0)
(0.02777 -0.0008593 0)
(0.02793 -0.0008624 0)
(0.0281 -0.0008747 0)
(0.02828 -0.0008966 0)
(0.02848 -0.0009269 0)
(0.02869 -0.0009642 0)
(0.02892 -0.001007 0)
(0.02916 -0.001053 0)
(0.02941 -0.001101 0)
(0.02968 -0.001152 0)
(0.02996 -0.001204 0)
(0.03025 -0.001257 0)
(0.03056 -0.00131 0)
(0.03088 -0.001363 0)
(0.03121 -0.001415 0)
(0.03155 -0.001467 0)
(0.0319 -0.001517 0)
(0.03227 -0.001566 0)
(0.03264 -0.001615 0)
(0.03302 -0.001663 0)
(0.03342 -0.001711 0)
(0.03382 -0.001761 0)
(0.03424 -0.001812 0)
(0.03466 -0.001866 0)
(0.03509 -0.001924 0)
(0.03554 -0.001986 0)
(0.036 -0.002053 0)
(0.03646 -0.002126 0)
(0.03695 -0.002207 0)
(0.03744 -0.002297 0)
(0.03795 -0.002397 0)
(0.03848 -0.00251 0)
(0.03903 -0.002637 0)
(0.03959 -0.002781 0)
(0.04018 -0.002945 0)
(0.04079 -0.003131 0)
(0.04143 -0.003345 0)
(0.0421 -0.003589 0)
(0.0428 -0.003869 0)
(0.04354 -0.004191 0)
(0.04433 -0.004562 0)
(0.04516 -0.004988 0)
(0.04603 -0.005478 0)
(0.04696 -0.006044 0)
(0.04795 -0.006696 0)
(0.04898 -0.007448 0)
(0.05007 -0.008317 0)
(0.05122 -0.009321 0)
(0.0524 -0.01048 0)
(0.05361 -0.01182 0)
(0.05482 -0.01337 0)
(0.05601 -0.01512 0)
(0.05713 -0.0171 0)
(0.05813 -0.01931 0)
(0.05895 -0.02174 0)
(0.05949 -0.02437 0)