/*--------------------------------*- C++ -*----------------------------------*\
| =========                 |                                                 |
| \\      /  F ield         | OpenFOAM: The Open Source CFD Toolbox           |
|  \\    /   O peration     | Version:  5.x                                   |
|   \\  /    A nd           | Web:      www.OpenFOAM.org                      |
|    \\/     M anipulation  |                                                 |
\*---------------------------------------------------------------------------*/
FoamFile
{
    version     2.0;
    format      ascii;
    class       volScalarField;
    location    "90";
    object      gamma;
}
// * * * * * * * * * * * * * * * * * * * * * * * * * * * * * * * * * * * * * //

dimensions      [0 0 0 0 0 0 0];

internalField   nonuniform List<scalar> 
80000
(
1
1
1
1
1
1
1
1
1
1
1
1
1
1
1
1
1
1
1
1
1
1
1
1
1
1
1
1
1
1
1
1
1
1
1
1
1
1
1
1
1
1
1
1
1
1
1
1
1
1
1
1
1
1
1
1
1
1
1
1
1
1
1
1
1
1
1
1
1
1
1
1
1
1
1
1
1
1
1
1
1
1
1
1
1
1
1
1
1
1
1
1
1
1
1
1
1
1
1
1
1
1
1
1
1
1
1
1
1
1
1
1
1
1
1
1
1
1
1
1
1
1
1
1
1
1
1
1
1
1
1
1
1
1
1
1
1
1
1
1
1
1
1
1
1
1
1
1
1
1
1
1
1
1
1
1
1
1
1
1
1
1
1
1
1
1
1
1
1
1
1
1
1
1
1
1
1
1
1
1
1
1
1
1
1
1
1
1
1
1
1
1
1
1
1
1
1
1
1
1
1
1
1
1
1
1
1
1
1
1
1
1
1
1
1
1
1
1
1
1
1
1
1
1
1
1
1
1
1
1
1
1
1
1
1
1
1
1
1
1
1
1
1
1
1
1
1
1
1
1
1
1
1
1
1
1
1
1
1
0.99996
0.99852
0.87832
0.0047681
2.5136e-05
9.2506e-07
1.2641e-07
1.0195e-08
7.761e-10
1.0634e-10
4.0548e-11
7.456e-11
4.8772e-10
4.5141e-09
3.0771e-08
1.2688e-07
2.0951e-07
2.1091e-07
2.1701e-07
4.0111e-07
9.9578e-07
3.2385e-06
6.5079e-06
1.065e-05
1.2713e-05
7.4141e-06
3.2574e-06
1.0337e-06
5.12e-07
4.3703e-07
7.0372e-07
7.8615e-07
7.6815e-07
7.3167e-07
6.9918e-07
6.697e-07
6.5073e-07
6.4193e-07
6.3684e-07
6.358e-07
6.2812e-07
6.1603e-07
6.0017e-07
5.8329e-07
5.7004e-07
5.6063e-07
5.5388e-07
5.512e-07
5.4682e-07
5.3202e-07
5.0544e-07
4.7256e-07
4.6261e-07
5.3955e-07
8.8409e-07
1.3698e-06
6.3739e-07
1.8246e-07
3.574e-08
1.2758e-08
9.4792e-09
1.5987e-08
1.7852e-08
1.7053e-08
1.6033e-08
1.5406e-08
1.5047e-08
1.473e-08
1.4403e-08
1.4074e-08
1.3752e-08
1.3443e-08
1.3144e-08
1.2855e-08
1.2574e-08
1.2302e-08
1.2038e-08
1.1782e-08
1.1533e-08
1.1292e-08
1.1057e-08
1.083e-08
1.0609e-08
1.0395e-08
1.0188e-08
9.9879e-09
9.7942e-09
9.6073e-09
9.4271e-09
9.2537e-09
9.087e-09
8.9272e-09
8.7743e-09
8.6283e-09
8.4893e-09
8.3572e-09
8.232e-09
8.1138e-09
8.0026e-09
7.8982e-09
7.8007e-09
7.71e-09
7.626e-09
7.5485e-09
7.4774e-09
7.4127e-09
7.354e-09
7.3012e-09
7.254e-09
7.2123e-09
7.1757e-09
7.1439e-09
7.1167e-09
7.0938e-09
7.0747e-09
7.0592e-09
7.0468e-09
7.0373e-09
7.0303e-09
7.0254e-09
7.0223e-09
7.0206e-09
7.0201e-09
7.0204e-09
7.0212e-09
7.0223e-09
7.0236e-09
7.0259e-09
7.0294e-09
7.0309e-09
7.0178e-09
6.9782e-09
6.9678e-09
7.1207e-09
7.5526e-09
7.7504e-09
5.8053e-09
4.3338e-09
5.322e-09
6.9404e-09
1.2287e-08
1
1
1
1
1
1
1
1
1
1
1
1
1
1
1
1
1
1
1
1
1
1
1
1
1
1
1
1
1
1
1
1
1
1
1
1
1
1
1
1
1
1
1
1
1
1
1
1
1
1
1
1
1
1
1
1
1
1
1
1
1
1
1
1
1
1
1
1
1
1
1
1
1
1
1
1
1
1
1
1
1
1
1
1
1
1
1
1
1
1
1
1
1
1
1
1
1
1
1
1
1
1
1
1
1
1
1
1
1
1
1
1
1
1
1
1
1
1
1
1
1
1
1
1
1
1
1
1
1
1
1
1
1
1
1
1
1
1
1
1
1
1
1
1
1
1
1
1
1
1
1
1
1
1
1
1
1
1
1
1
1
1
1
1
1
1
1
1
1
1
1
1
1
1
1
1
1
1
1
1
1
1
1
1
1
1
1
1
1
1
1
1
1
1
1
1
1
1
1
1
1
1
1
1
1
1
1
1
1
1
1
1
1
1
1
1
1
1
1
1
1
1
1
1
1
1
1
1
1
1
1
1
1
1
1
1
1
1
1
1
1
1
1
1
1
1
1
1
1
1
1
1
1
1
1
1
1
1
1
0.99998
0.99972
0.9932
0.86266
0.12525
0.0087884
0.0010729
4.5383e-05
1.0147e-06
2.5674e-08
1.4373e-09
3.532e-10
3.9463e-10
1.0221e-09
3.0151e-09
8.6963e-09
1.9657e-08
4.7245e-08
1.2918e-07
4.7626e-07
1.84e-06
4.2322e-06
6.9307e-06
8.2462e-06
6.7773e-06
3.1895e-06
1.2644e-06
4.6054e-07
3.031e-07
3.166e-07
4.7759e-07
5.2126e-07
5.0517e-07
4.7796e-07
4.563e-07
4.4037e-07
4.3129e-07
4.2702e-07
4.2481e-07
4.1911e-07
4.1095e-07
4.0135e-07
3.905e-07
3.7991e-07
3.7243e-07
3.6684e-07
3.6348e-07
3.5974e-07
3.5415e-07
3.4138e-07
3.2296e-07
3.0584e-07
3.1568e-07
4.0604e-07
5.3012e-07
4.9395e-07
1.7894e-07
4.7589e-08
1.1679e-08
6.2366e-09
6.0701e-09
9.5366e-09
1.034e-08
9.8162e-09
9.2391e-09
8.8887e-09
8.6813e-09
8.4956e-09
8.3048e-09
8.1137e-09
7.9281e-09
7.7493e-09
7.577e-09
7.4103e-09
7.2488e-09
7.0923e-09
6.9404e-09
6.7929e-09
6.6498e-09
6.5108e-09
6.3759e-09
6.2449e-09
6.1179e-09
5.9947e-09
5.8753e-09
5.7598e-09
5.648e-09
5.5401e-09
5.436e-09
5.3357e-09
5.2393e-09
5.1467e-09
5.0581e-09
4.9733e-09
4.8925e-09
4.8157e-09
4.7428e-09
4.6738e-09
4.6088e-09
4.5477e-09
4.4905e-09
4.4371e-09
4.3876e-09
4.3418e-09
4.2996e-09
4.261e-09
4.2258e-09
4.194e-09
4.1655e-09
4.14e-09
4.1174e-09
4.0977e-09
4.0805e-09
4.0658e-09
4.0533e-09
4.0428e-09
4.0343e-09
4.0274e-09
4.0219e-09
4.0178e-09
4.0148e-09
4.0127e-09
4.0113e-09
4.0105e-09
4.0102e-09
4.0101e-09
4.0103e-09
4.0112e-09
4.0129e-09
4.0136e-09
4.0057e-09
3.9824e-09
3.9768e-09
4.0678e-09
4.3227e-09
4.4364e-09
3.2867e-09
2.4357e-09
3.0349e-09
3.9525e-09
6.9404e-09
1
1
1
1
1
1
1
1
1
1
1
1
1
1
1
1
1
1
1
1
1
1
1
1
1
1
1
1
1
1
1
1
1
1
1
1
1
1
1
1
1
1
1
1
1
1
1
1
1
1
1
1
1
1
1
1
1
1
1
1
1
1
1
1
1
1
1
1
1
1
1
1
1
1
1
1
1
1
1
1
1
1
1
1
1
1
1
1
1
1
1
1
1
1
1
1
1
1
1
1
1
1
1
1
1
1
1
1
1
1
1
1
1
1
1
1
1
1
1
1
1
1
1
1
1
1
1
1
1
1
1
1
1
1
1
1
1
1
1
1
1
1
1
1
1
1
1
1
1
1
1
1
1
1
1
1
1
1
1
1
1
1
1
1
1
1
1
1
1
1
1
1
1
1
1
1
1
1
1
1
1
1
1
1
1
1
1
1
1
1
1
1
1
1
1
1
1
1
1
1
1
1
1
1
1
1
1
1
1
1
1
1
1
1
1
1
1
1
1
1
1
1
1
1
1
1
1
1
1
1
1
1
1
1
1
1
1
1
1
1
1
1
1
1
1
1
1
1
1
1
1
1
1
1
1
1
1
1
1
1
0.99998
0.99984
0.99867
0.99244
0.97015
0.9001
0.37875
0.0067233
7.3411e-05
8.0557e-07
3.0639e-08
4.3543e-09
1.5736e-09
9.08e-10
1.1382e-09
2.4018e-09
1.0047e-08
6.1779e-08
4.7123e-07
2.112e-06
5.2538e-06
7.2668e-06
6.1115e-06
3.5227e-06
1.3917e-06
4.9527e-07
2.84e-07
2.4983e-07
3.0074e-07
4.111e-07
4.3344e-07
4.1406e-07
3.9117e-07
3.7488e-07
3.6462e-07
3.5919e-07
3.5667e-07
3.5163e-07
3.4459e-07
3.3629e-07
3.2739e-07
3.1897e-07
3.1128e-07
3.0596e-07
3.0161e-07
2.9847e-07
2.9408e-07
2.8724e-07
2.743e-07
2.5906e-07
2.5257e-07
2.826e-07
4.1453e-07
4.1961e-07
2.5155e-07
7.138e-08
1.5377e-08
5.432e-09
4.471e-09
5.3756e-09
7.599e-09
7.916e-09
7.4733e-09
7.0604e-09
6.8117e-09
6.6555e-09
6.5123e-09
6.3659e-09
6.2202e-09
6.0792e-09
5.9436e-09
5.813e-09
5.6868e-09
5.5647e-09
5.4462e-09
5.3313e-09
5.2198e-09
5.1115e-09
5.0064e-09
4.9042e-09
4.8051e-09
4.7088e-09
4.6154e-09
4.5248e-09
4.4371e-09
4.3521e-09
4.27e-09
4.1907e-09
4.1143e-09
4.0407e-09
3.97e-09
3.9021e-09
3.8372e-09
3.7752e-09
3.7161e-09
3.6599e-09
3.6067e-09
3.5564e-09
3.5091e-09
3.4646e-09
3.423e-09
3.3842e-09
3.3482e-09
3.315e-09
3.2844e-09
3.2564e-09
3.2309e-09
3.2078e-09
3.1871e-09
3.1685e-09
3.1521e-09
3.1376e-09
3.125e-09
3.114e-09
3.1047e-09
3.0968e-09
3.0902e-09
3.0847e-09
3.0803e-09
3.0769e-09
3.0742e-09
3.0721e-09
3.0706e-09
3.0695e-09
3.0688e-09
3.0684e-09
3.0686e-09
3.0696e-09
3.0699e-09
3.0637e-09
3.0455e-09
3.0412e-09
3.1123e-09
3.3104e-09
3.3987e-09
2.5063e-09
1.8465e-09
2.3166e-09
3.0349e-09
5.322e-09
1
1
1
1
1
1
1
1
1
1
1
1
1
1
1
1
1
1
1
1
1
1
1
1
1
1
1
1
1
1
1
1
1
1
1
1
1
1
1
1
1
1
1
1
1
1
1
1
1
1
1
1
1
1
1
1
1
1
1
1
1
1
1
1
1
1
1
1
1
1
1
1
1
1
1
1
1
1
1
1
1
1
1
1
1
1
1
1
1
1
1
1
1
1
1
1
1
1
1
1
1
1
1
1
1
1
1
1
1
1
1
1
1
1
1
1
1
1
1
1
1
1
1
1
1
1
1
1
1
1
1
1
1
1
1
1
1
1
1
1
1
1
1
1
1
1
1
1
1
1
1
1
1
1
1
1
1
1
1
1
1
1
1
1
1
1
1
1
1
1
1
1
1
1
1
1
1
1
1
1
1
1
1
1
1
1
1
1
1
1
1
1
1
1
1
1
1
1
1
1
1
1
1
1
1
1
1
1
1
1
1
1
1
1
1
1
1
1
1
1
1
1
1
1
1
1
1
1
1
1
1
1
1
1
1
1
1
1
1
1
1
1
1
1
1
1
1
1
1
1
1
1
1
1
1
1
1
1
1
1
1
1
1
0.99999
0.99998
0.99994
0.99962
0.99455
0.8524
0.0095298
4.1915e-05
4.83e-07
1.6115e-08
1.3682e-09
4.3617e-10
4.3154e-10
1.7044e-09
1.733e-08
1.8236e-07
1.2844e-06
3.9035e-06
4.7469e-06
3.0505e-06
1.3099e-06
4.528e-07
2.4768e-07
2.0835e-07
2.4055e-07
3.1665e-07
3.7527e-07
3.7381e-07
3.5126e-07
3.3191e-07
3.1972e-07
3.137e-07
3.1157e-07
3.0822e-07
3.0167e-07
2.9375e-07
2.8506e-07
2.7722e-07
2.7099e-07
2.655e-07
2.6176e-07
2.5858e-07
2.5447e-07
2.494e-07
2.4104e-07
2.2746e-07
2.1508e-07
2.2064e-07
2.8006e-07
3.7196e-07
2.384e-07
8.172e-08
1.6455e-08
4.9692e-09
2.8562e-09
3.7066e-09
5.2646e-09
6.392e-09
6.3081e-09
5.9238e-09
5.6337e-09
5.4584e-09
5.3364e-09
5.2203e-09
5.1025e-09
4.9864e-09
4.8744e-09
4.767e-09
4.6637e-09
4.5639e-09
4.4673e-09
4.3738e-09
4.2831e-09
4.1951e-09
4.1097e-09
4.0267e-09
3.9461e-09
3.8678e-09
3.7917e-09
3.7178e-09
3.6462e-09
3.5767e-09
3.5093e-09
3.4441e-09
3.3811e-09
3.3202e-09
3.2615e-09
3.205e-09
3.1508e-09
3.0987e-09
3.0489e-09
3.0013e-09
2.956e-09
2.9129e-09
2.8721e-09
2.8336e-09
2.7972e-09
2.7631e-09
2.7311e-09
2.7013e-09
2.6736e-09
2.648e-09
2.6244e-09
2.6027e-09
2.5829e-09
2.5649e-09
2.5486e-09
2.5339e-09
2.5208e-09
2.5092e-09
2.4989e-09
2.4899e-09
2.482e-09
2.4752e-09
2.4694e-09
2.4645e-09
2.4604e-09
2.457e-09
2.4542e-09
2.4519e-09
2.4502e-09
2.4487e-09
2.4477e-09
2.4474e-09
2.4478e-09
2.4477e-09
2.4424e-09
2.4277e-09
2.4243e-09
2.482e-09
2.6424e-09
2.7132e-09
1.9914e-09
1.4607e-09
1.8465e-09
2.4357e-09
4.3338e-09
1
1
1
1
1
1
1
1
1
1
1
1
1
1
1
1
1
1
1
1
1
1
1
1
1
1
1
1
1
1
1
1
1
1
1
1
1
1
1
1
1
1
1
1
1
1
1
1
1
1
1
1
1
1
1
1
1
1
1
1
1
1
1
1
1
1
1
1
1
1
1
1
1
1
1
1
1
1
1
1
1
1
1
1
1
1
1
1
1
1
1
1
1
1
1
1
1
1
1
1
1
1
1
1
1
1
1
1
1
1
1
1
1
1
1
1
1
1
1
1
1
1
1
1
1
1
1
1
1
1
1
1
1
1
1
1
1
1
1
1
1
1
1
1
1
1
1
1
1
1
1
1
1
1
1
1
1
1
1
1
1
1
1
1
1
1
1
1
1
1
1
1
1
1
1
1
1
1
1
1
1
1
1
1
1
1
1
1
1
1
1
1
1
1
1
1
1
1
1
1
1
1
1
1
1
1
1
1
1
1
1
1
1
1
1
1
1
1
1
1
1
1
1
1
1
1
1
1
1
1
1
1
1
1
1
1
1
1
1
1
1
1
1
1
1
1
1
1
1
1
1
1
1
1
1
1
1
1
1
1
1
1
1
1
1
1
1
0.99999
0.9999
0.9959
0.84447
0.010315
4.4448e-05
4.2073e-07
1.3387e-08
1.5825e-09
1.7542e-09
6.4647e-09
4.1745e-08
2.1766e-07
6.3146e-07
8.8501e-07
7.6036e-07
3.8323e-07
2.5069e-07
2.3212e-07
2.8271e-07
3.9138e-07
4.9896e-07
5.1373e-07
4.8527e-07
4.4934e-07
4.2543e-07
4.1225e-07
4.0763e-07
4.0312e-07
3.9701e-07
3.8556e-07
3.7377e-07
3.6335e-07
3.5546e-07
3.4896e-07
3.4327e-07
3.3855e-07
3.3252e-07
3.2605e-07
3.1864e-07
3.058e-07
2.8684e-07
2.7341e-07
2.9879e-07
4.3414e-07
4.3952e-07
1.7899e-07
4.1529e-08
8.2231e-09
3.2156e-09
3.2867e-09
5.9673e-09
8.5725e-09
8.9651e-09
8.4336e-09
7.9101e-09
7.5843e-09
7.3811e-09
7.2205e-09
7.0626e-09
6.9042e-09
6.7495e-09
6.6007e-09
6.4579e-09
6.3203e-09
6.1876e-09
6.0593e-09
5.9351e-09
5.8147e-09
5.6979e-09
5.5846e-09
5.4746e-09
5.3676e-09
5.2637e-09
5.1627e-09
5.0646e-09
4.9694e-09
4.8769e-09
4.7873e-09
4.7004e-09
4.6163e-09
4.535e-09
4.4565e-09
4.3809e-09
4.308e-09
4.2381e-09
4.1709e-09
4.1067e-09
4.0454e-09
3.987e-09
3.9314e-09
3.8788e-09
3.829e-09
3.7821e-09
3.738e-09
3.6967e-09
3.6581e-09
3.6222e-09
3.5888e-09
3.558e-09
3.5297e-09
3.5036e-09
3.4798e-09
3.4582e-09
3.4386e-09
3.421e-09
3.4051e-09
3.391e-09
3.3784e-09
3.3673e-09
3.3576e-09
3.3491e-09
3.3418e-09
3.3356e-09
3.3303e-09
3.3258e-09
3.3221e-09
3.3191e-09
3.3167e-09
3.3154e-09
3.3152e-09
3.3146e-09
3.3072e-09
3.2873e-09
3.2826e-09
3.3596e-09
3.5735e-09
3.6683e-09
2.7049e-09
1.9914e-09
2.5063e-09
3.2867e-09
5.8053e-09
1
1
1
1
1
1
1
1
1
1
1
1
1
1
1
1
1
1
1
1
1
1
1
1
1
1
1
1
1
1
1
1
1
1
1
1
1
1
1
1
1
1
1
1
1
1
1
1
1
1
1
1
1
1
1
1
1
1
1
1
1
1
1
1
1
1
1
1
1
1
1
1
1
1
1
1
1
1
1
1
1
1
1
1
1
1
1
1
1
1
1
1
1
1
1
1
1
1
1
1
1
1
1
1
1
1
1
1
1
1
1
1
1
1
1
1
1
1
1
1
1
1
1
1
1
1
1
1
1
1
1
1
1
1
1
1
1
1
1
1
1
1
1
1
1
1
1
1
1
1
1
1
1
1
1
1
1
1
1
1
1
1
1
1
1
1
1
1
1
1
1
1
1
1
1
1
1
1
1
1
1
1
1
1
1
1
1
1
1
1
1
1
1
1
1
1
1
1
1
1
1
1
1
1
1
1
1
1
1
1
1
1
1
1
1
1
1
1
1
1
1
1
1
1
1
1
1
1
1
1
1
1
1
1
1
1
1
1
1
1
1
1
1
1
1
1
1
1
1
1
1
1
1
1
1
1
1
1
1
1
1
1
1
1
1
1
1
1
1
0.99999
0.99989
0.99648
0.84306
0.0078144
3.1631e-05
3.3953e-07
3.0103e-08
1.1282e-08
1.3823e-08
2.0315e-08
3.2154e-08
4.4314e-08
5.7917e-08
7.8188e-08
1.3799e-07
2.7485e-07
4.8525e-07
6.8923e-07
7.3245e-07
6.9395e-07
6.3674e-07
5.8527e-07
5.5549e-07
5.3959e-07
5.3141e-07
5.2239e-07
5.1182e-07
4.9383e-07
4.7765e-07
4.6645e-07
4.5803e-07
4.5132e-07
4.4591e-07
4.388e-07
4.2938e-07
4.2041e-07
4.1052e-07
3.9234e-07
3.6678e-07
3.5359e-07
4.0844e-07
6.6337e-07
4.5971e-07
1.2948e-07
2.3275e-08
6.5833e-09
3.5629e-09
6.2293e-09
1.1618e-08
1.3371e-08
1.26e-08
1.1496e-08
1.0784e-08
1.0385e-08
1.0117e-08
9.8862e-09
9.6612e-09
9.4415e-09
9.2301e-09
9.0272e-09
8.8322e-09
8.644e-09
8.4622e-09
8.2865e-09
8.1165e-09
7.9519e-09
7.7924e-09
7.6377e-09
7.4876e-09
7.3418e-09
7.2003e-09
7.0627e-09
6.9291e-09
6.7994e-09
6.6735e-09
6.5514e-09
6.4331e-09
6.3184e-09
6.2076e-09
6.1005e-09
5.9971e-09
5.8975e-09
5.8017e-09
5.7098e-09
5.6216e-09
5.5373e-09
5.4569e-09
5.3803e-09
5.3074e-09
5.2384e-09
5.1732e-09
5.1117e-09
5.0538e-09
4.9995e-09
4.9488e-09
4.9015e-09
4.8575e-09
4.8168e-09
4.7792e-09
4.7446e-09
4.7128e-09
4.6838e-09
4.6573e-09
4.6334e-09
4.6117e-09
4.5922e-09
4.5748e-09
4.5592e-09
4.5455e-09
4.5334e-09
4.5228e-09
4.5137e-09
4.5058e-09
4.4991e-09
4.4935e-09
4.489e-09
4.486e-09
4.4848e-09
4.4831e-09
4.4726e-09
4.4455e-09
4.4388e-09
4.5411e-09
4.8257e-09
4.952e-09
3.6683e-09
2.7132e-09
3.3987e-09
4.4364e-09
7.7504e-09
1
1
1
1
1
1
1
1
1
1
1
1
1
1
1
1
1
1
1
1
1
1
1
1
1
1
1
1
1
1
1
1
1
1
1
1
1
1
1
1
1
1
1
1
1
1
1
1
1
1
1
1
1
1
1
1
1
1
1
1
1
1
1
1
1
1
1
1
1
1
1
1
1
1
1
1
1
1
1
1
1
1
1
1
1
1
1
1
1
1
1
1
1
1
1
1
1
1
1
1
1
1
1
1
1
1
1
1
1
1
1
1
1
1
1
1
1
1
1
1
1
1
1
1
1
1
1
1
1
1
1
1
1
1
1
1
1
1
1
1
1
1
1
1
1
1
1
1
1
1
1
1
1
1
1
1
1
1
1
1
1
1
1
1
1
1
1
1
1
1
1
1
1
1
1
1
1
1
1
1
1
1
1
1
1
1
1
1
1
1
1
1
1
1
1
1
1
1
1
1
1
1
1
1
1
1
1
1
1
1
1
1
1
1
1
1
1
1
1
1
1
1
1
1
1
1
1
1
1
1
1
1
1
1
1
1
1
1
1
1
1
1
1
1
1
1
1
1
1
1
1
1
1
1
1
1
1
1
1
1
1
1
1
1
1
1
1
1
1
1
1
0.99999
0.99983
0.99283
0.69831
0.0025937
2.1808e-05
4.2165e-07
3.1211e-08
4.7605e-09
2.0327e-09
1.3175e-09
2.5447e-09
7.3931e-09
3.1192e-08
1.3449e-07
3.5974e-07
5.8762e-07
6.8622e-07
6.9061e-07
6.5338e-07
6.0965e-07
5.8069e-07
5.5902e-07
5.4447e-07
5.3094e-07
5.1782e-07
4.9852e-07
4.8298e-07
4.7204e-07
4.6408e-07
4.586e-07
4.5154e-07
4.4285e-07
4.3239e-07
4.2372e-07
4.1473e-07
3.9648e-07
3.7041e-07
3.6052e-07
4.2967e-07
7.3765e-07
3.4482e-07
8.6115e-08
1.5209e-08
5.0294e-09
3.3087e-09
8.2596e-09
1.3333e-08
1.4153e-08
1.2953e-08
1.1766e-08
1.1048e-08
1.0612e-08
1.0287e-08
1.0001e-08
9.7397e-09
9.4999e-09
9.2775e-09
9.0674e-09
8.8663e-09
8.6723e-09
8.4846e-09
8.3029e-09
8.1272e-09
7.9571e-09
7.7925e-09
7.633e-09
7.4785e-09
7.3287e-09
7.1833e-09
7.0423e-09
6.9055e-09
6.7728e-09
6.644e-09
6.5192e-09
6.3984e-09
6.2814e-09
6.1683e-09
6.059e-09
5.9536e-09
5.852e-09
5.7543e-09
5.6604e-09
5.5704e-09
5.4843e-09
5.402e-09
5.3236e-09
5.249e-09
5.1781e-09
5.111e-09
5.0477e-09
4.9879e-09
4.9318e-09
4.8791e-09
4.8298e-09
4.7839e-09
4.7411e-09
4.7014e-09
4.6647e-09
4.6309e-09
4.5998e-09
4.5712e-09
4.5452e-09
4.5214e-09
4.4999e-09
4.4804e-09
4.4629e-09
4.4473e-09
4.4333e-09
4.421e-09
4.4102e-09
4.4008e-09
4.3926e-09
4.3857e-09
4.3799e-09
4.3758e-09
4.3736e-09
4.371e-09
4.36e-09
4.3328e-09
4.3257e-09
4.425e-09
4.7025e-09
4.8257e-09
3.5735e-09
2.6424e-09
3.3104e-09
4.3227e-09
7.5526e-09
1
1
1
1
1
1
1
1
1
1
1
1
1
1
1
1
1
1
1
1
1
1
1
1
1
1
1
1
1
1
1
1
1
1
1
1
1
1
1
1
1
1
1
1
1
1
1
1
1
1
1
1
1
1
1
1
1
1
1
1
1
1
1
1
1
1
1
1
1
1
1
1
1
1
1
1
1
1
1
1
1
1
1
1
1
1
1
1
1
1
1
1
1
1
1
1
1
1
1
1
1
1
1
1
1
1
1
1
1
1
1
1
1
1
1
1
1
1
1
1
1
1
1
1
1
1
1
1
1
1
1
1
1
1
1
1
1
1
1
1
1
1
1
1
1
1
1
1
1
1
1
1
1
1
1
1
1
1
1
1
1
1
1
1
1
1
1
1
1
1
1
1
1
1
1
1
1
1
1
1
1
1
1
1
1
1
1
1
1
1
1
1
1
1
1
1
1
1
1
1
1
1
1
1
1
1
1
1
1
1
1
1
1
1
1
1
1
1
1
1
1
1
1
1
1
1
1
1
1
1
1
1
1
1
1
1
1
1
1
1
1
1
1
1
1
1
1
1
1
1
1
1
1
1
1
1
1
1
1
1
1
1
1
1
1
1
1
1
1
1
1
1
1
0.99997
0.99945
0.97566
0.21014
0.000605
3.9167e-06
4.5346e-08
2.085e-09
3.51e-10
3.182e-10
8.2757e-10
3.8362e-09
2.1465e-08
7.5633e-08
2.0189e-07
3.6755e-07
5.1281e-07
5.8545e-07
6.0053e-07
5.9003e-07
5.6952e-07
5.5021e-07
5.3132e-07
5.142e-07
4.9492e-07
4.7981e-07
4.6894e-07
4.6093e-07
4.5394e-07
4.4508e-07
4.3554e-07
4.2549e-07
4.1829e-07
4.1097e-07
3.9353e-07
3.6843e-07
3.5998e-07
4.2761e-07
7.2563e-07
3.3201e-07
8.0005e-08
1.3442e-08
4.235e-09
2.7038e-09
6.7595e-09
1.1361e-08
1.2789e-08
1.2357e-08
1.1624e-08
1.1073e-08
1.063e-08
1.0228e-08
9.8581e-09
9.5339e-09
9.2547e-09
9.0117e-09
8.793e-09
8.5897e-09
8.3963e-09
8.2101e-09
8.03e-09
7.8555e-09
7.6866e-09
7.523e-09
7.3647e-09
7.2115e-09
7.0631e-09
6.9193e-09
6.7799e-09
6.6448e-09
6.514e-09
6.3871e-09
6.2643e-09
6.1454e-09
6.0304e-09
5.9192e-09
5.8118e-09
5.7082e-09
5.6084e-09
5.5124e-09
5.4201e-09
5.3316e-09
5.2469e-09
5.1658e-09
5.0885e-09
5.0148e-09
4.9448e-09
4.8783e-09
4.8154e-09
4.756e-09
4.7e-09
4.6474e-09
4.5979e-09
4.5517e-09
4.5085e-09
4.4682e-09
4.4308e-09
4.3961e-09
4.364e-09
4.3344e-09
4.3072e-09
4.2823e-09
4.2595e-09
4.2387e-09
4.2199e-09
4.2029e-09
4.1877e-09
4.174e-09
4.1619e-09
4.1513e-09
4.1419e-09
4.1338e-09
4.1271e-09
4.1219e-09
4.1187e-09
4.1153e-09
4.1041e-09
4.0777e-09
4.0703e-09
4.1635e-09
4.425e-09
4.5411e-09
3.3596e-09
2.482e-09
3.1123e-09
4.0678e-09
7.1208e-09
1
1
1
1
1
1
1
1
1
1
1
1
1
1
1
1
1
1
1
1
1
1
1
1
1
1
1
1
1
1
1
1
1
1
1
1
1
1
1
1
1
1
1
1
1
1
1
1
1
1
1
1
1
1
1
1
1
1
1
1
1
1
1
1
1
1
1
1
1
1
1
1
1
1
1
1
1
1
1
1
1
1
1
1
1
1
1
1
1
1
1
1
1
1
1
1
1
1
1
1
1
1
1
1
1
1
1
1
1
1
1
1
1
1
1
1
1
1
1
1
1
1
1
1
1
1
1
1
1
1
1
1
1
1
1
1
1
1
1
1
1
1
1
1
1
1
1
1
1
1
1
1
1
1
1
1
1
1
1
1
1
1
1
1
1
1
1
1
1
1
1
1
1
1
1
1
1
1
1
1
1
1
1
1
1
1
1
1
1
1
1
1
1
1
1
1
1
1
1
1
1
1
1
1
1
1
1
1
1
1
1
1
1
1
1
1
1
1
1
1
1
1
1
1
1
1
1
1
1
1
1
1
1
1
1
1
1
1
1
1
1
1
1
1
1
1
1
1
1
1
1
1
1
1
1
1
1
1
1
1
1
1
1
1
1
1
1
1
1
1
1
1
1
1
0.99999
0.99991
0.99833
0.94526
0.04178
7.9796e-05
2.7024e-07
4.8497e-09
6.4162e-10
4.5418e-10
6.8387e-10
1.9298e-09
5.9648e-09
2.2802e-08
7.3546e-08
1.8683e-07
3.4601e-07
4.7911e-07
5.537e-07
5.7421e-07
5.6814e-07
5.5055e-07
5.3207e-07
5.1201e-07
4.9584e-07
4.8309e-07
4.7357e-07
4.6292e-07
4.525e-07
4.4258e-07
4.3381e-07
4.2812e-07
4.2135e-07
4.0483e-07
3.8077e-07
3.7095e-07
4.2622e-07
6.7047e-07
4.3678e-07
1.4896e-07
2.7339e-08
6.9827e-09
3.0971e-09
4.374e-09
6.6644e-09
9.2264e-09
1.0503e-08
1.1011e-08
1.1139e-08
1.0978e-08
1.063e-08
1.0204e-08
9.793e-09
9.4303e-09
9.1235e-09
8.862e-09
8.6336e-09
8.4265e-09
8.2332e-09
8.0488e-09
7.8711e-09
7.699e-09
7.5322e-09
7.3705e-09
7.214e-09
7.0624e-09
6.9156e-09
6.7736e-09
6.636e-09
6.5028e-09
6.3739e-09
6.2491e-09
6.1283e-09
6.0116e-09
5.8988e-09
5.7898e-09
5.6847e-09
5.5835e-09
5.486e-09
5.3923e-09
5.3024e-09
5.2162e-09
5.1337e-09
5.0549e-09
4.9797e-09
4.9081e-09
4.8401e-09
4.7755e-09
4.7144e-09
4.6566e-09
4.6021e-09
4.5508e-09
4.5026e-09
4.4574e-09
4.4151e-09
4.3757e-09
4.3389e-09
4.3047e-09
4.2729e-09
4.2436e-09
4.2165e-09
4.1916e-09
4.1688e-09
4.1479e-09
4.1289e-09
4.1117e-09
4.0962e-09
4.0824e-09
4.07e-09
4.0591e-09
4.0496e-09
4.0414e-09
4.0351e-09
4.0307e-09
4.0263e-09
4.0143e-09
3.9876e-09
3.9797e-09
4.0703e-09
4.3257e-09
4.4388e-09
3.2826e-09
2.4243e-09
3.0413e-09
3.9768e-09
6.9678e-09
1
1
1
1
1
1
1
1
1
1
1
1
1
1
1
1
1
1
1
1
1
1
1
1
1
1
1
1
1
1
1
1
1
1
1
1
1
1
1
1
1
1
1
1
1
1
1
1
1
1
1
1
1
1
1
1
1
1
1
1
1
1
1
1
1
1
1
1
1
1
1
1
1
1
1
1
1
1
1
1
1
1
1
1
1
1
1
1
1
1
1
1
1
1
1
1
1
1
1
1
1
1
1
1
1
1
1
1
1
1
1
1
1
1
1
1
1
1
1
1
1
1
1
1
1
1
1
1
1
1
1
1
1
1
1
1
1
1
1
1
1
1
1
1
1
1
1
1
1
1
1
1
1
1
1
1
1
1
1
1
1
1
1
1
1
1
1
1
1
1
1
1
1
1
1
1
1
1
1
1
1
1
1
1
1
1
1
1
1
1
1
1
1
1
1
1
1
1
1
1
1
1
1
1
1
1
1
1
1
1
1
1
1
1
1
1
1
1
1
1
1
1
1
1
1
1
1
1
1
1
1
1
1
1
1
1
1
1
1
1
1
1
1
1
1
1
1
1
1
1
1
1
1
1
1
1
1
1
1
1
1
1
1
1
1
1
1
1
1
1
1
1
1
1
1
1
0.99999
0.99992
0.99789
0.89153
0.0057296
1.4768e-05
1.55e-07
9.3873e-09
1.1608e-09
5.6147e-10
5.9385e-10
1.4981e-09
5.4644e-09
2.303e-08
7.9312e-08
1.9374e-07
3.4959e-07
4.7359e-07
5.4199e-07
5.5909e-07
5.53e-07
5.3752e-07
5.2221e-07
5.0784e-07
4.9448e-07
4.8036e-07
4.6862e-07
4.5812e-07
4.5016e-07
4.4476e-07
4.3846e-07
4.2421e-07
4.0261e-07
3.9013e-07
4.2556e-07
5.933e-07
5.4502e-07
2.973e-07
9.0119e-08
2.3015e-08
7.51e-09
5.1163e-09
4.8297e-09
5.6719e-09
6.4198e-09
8.3858e-09
9.8739e-09
1.0705e-08
1.0941e-08
1.0766e-08
1.04e-08
9.9782e-09
9.581e-09
9.2328e-09
8.9381e-09
8.6867e-09
8.467e-09
8.2676e-09
8.0808e-09
7.9019e-09
7.7288e-09
7.5608e-09
7.3976e-09
7.2395e-09
7.0863e-09
6.938e-09
6.7946e-09
6.6557e-09
6.5215e-09
6.3916e-09
6.266e-09
6.1446e-09
6.0273e-09
5.9141e-09
5.8049e-09
5.6996e-09
5.5983e-09
5.5008e-09
5.4072e-09
5.3174e-09
5.2314e-09
5.1491e-09
5.0705e-09
4.9955e-09
4.9241e-09
4.8563e-09
4.7919e-09
4.7308e-09
4.6731e-09
4.6186e-09
4.5672e-09
4.5188e-09
4.4734e-09
4.4307e-09
4.3909e-09
4.3536e-09
4.3189e-09
4.2866e-09
4.2566e-09
4.2289e-09
4.2033e-09
4.1798e-09
4.1583e-09
4.1387e-09
4.1209e-09
4.1048e-09
4.0904e-09
4.0776e-09
4.0662e-09
4.0564e-09
4.0485e-09
4.0428e-09
4.0372e-09
4.024e-09
3.9964e-09
3.9877e-09
4.0777e-09
4.3329e-09
4.4455e-09
3.2873e-09
2.4277e-09
3.0455e-09
3.9825e-09
6.9782e-09
1
1
1
1
1
1
1
1
1
1
1
1
1
1
1
1
1
1
1
1
1
1
1
1
1
1
1
1
1
1
1
1
1
1
1
1
1
1
1
1
1
1
1
1
1
1
1
1
1
1
1
1
1
1
1
1
1
1
1
1
1
1
1
1
1
1
1
1
1
1
1
1
1
1
1
1
1
1
1
1
1
1
1
1
1
1
1
1
1
1
1
1
1
1
1
1
1
1
1
1
1
1
1
1
1
1
1
1
1
1
1
1
1
1
1
1
1
1
1
1
1
1
1
1
1
1
1
1
1
1
1
1
1
1
1
1
1
1
1
1
1
1
1
1
1
1
1
1
1
1
1
1
1
1
1
1
1
1
1
1
1
1
1
1
1
1
1
1
1
1
1
1
1
1
1
1
1
1
1
1
1
1
1
1
1
1
1
1
1
1
1
1
1
1
1
1
1
1
1
1
1
1
1
1
1
1
1
1
1
1
1
1
1
1
1
1
1
1
1
1
1
1
1
1
1
1
1
1
1
1
1
1
1
1
1
1
1
1
1
1
1
1
1
1
1
1
1
1
1
1
1
1
1
1
1
1
1
1
1
1
1
1
1
1
1
1
1
1
1
1
1
1
1
1
1
1
1
1
1
0.9999
0.99428
0.71636
0.0027896
1.5805e-05
1.2022e-07
3.8723e-09
4.6714e-10
2.679e-10
4.4997e-10
1.5994e-09
6.8936e-09
2.6866e-08
8.8654e-08
2.0645e-07
3.5575e-07
4.6906e-07
5.3161e-07
5.5102e-07
5.484e-07
5.3581e-07
5.1971e-07
5.0208e-07
4.8759e-07
4.7381e-07
4.647e-07
4.5912e-07
4.5393e-07
4.4341e-07
4.255e-07
4.0948e-07
4.2294e-07
5.1654e-07
6.0788e-07
5.1866e-07
2.5753e-07
1.0978e-07
3.1297e-08
1.4847e-08
8.3647e-09
6.296e-09
4.7905e-09
5.3428e-09
6.1656e-09
8.2293e-09
9.7468e-09
1.0539e-08
1.0742e-08
1.0557e-08
1.0198e-08
9.7893e-09
9.4082e-09
9.0774e-09
8.7998e-09
8.5633e-09
8.3551e-09
8.1636e-09
7.982e-09
7.8066e-09
7.6362e-09
7.4705e-09
7.3096e-09
7.1537e-09
7.0028e-09
6.8568e-09
6.7156e-09
6.5792e-09
6.4473e-09
6.3199e-09
6.1968e-09
6.0781e-09
5.9635e-09
5.8531e-09
5.7468e-09
5.6445e-09
5.5462e-09
5.4518e-09
5.3614e-09
5.2747e-09
5.1919e-09
5.1127e-09
5.0373e-09
4.9654e-09
4.897e-09
4.8321e-09
4.7705e-09
4.7122e-09
4.6571e-09
4.6051e-09
4.556e-09
4.5098e-09
4.4665e-09
4.4258e-09
4.3877e-09
4.3521e-09
4.319e-09
4.2882e-09
4.2596e-09
4.2332e-09
4.2089e-09
4.1866e-09
4.1663e-09
4.1478e-09
4.1312e-09
4.1162e-09
4.1029e-09
4.0913e-09
4.0817e-09
4.0745e-09
4.0674e-09
4.053e-09
4.0241e-09
4.0144e-09
4.1041e-09
4.3601e-09
4.4726e-09
3.3072e-09
2.4424e-09
3.0637e-09
4.0058e-09
7.0178e-09
1
1
1
1
1
1
1
1
1
1
1
1
1
1
1
1
1
1
1
1
1
1
1
1
1
1
1
1
1
1
1
1
1
1
1
1
1
1
1
1
1
1
1
1
1
1
1
1
1
1
1
1
1
1
1
1
1
1
1
1
1
1
1
1
1
1
1
1
1
1
1
1
1
1
1
1
1
1
1
1
1
1
1
1
1
1
1
1
1
1
1
1
1
1
1
1
1
1
1
1
1
1
1
1
1
1
1
1
1
1
1
1
1
1
1
1
1
1
1
1
1
1
1
1
1
1
1
1
1
1
1
1
1
1
1
1
1
1
1
1
1
1
1
1
1
1
1
1
1
1
1
1
1
1
1
1
1
1
1
1
1
1
1
1
1
1
1
1
1
1
1
1
1
1
1
1
1
1
1
1
1
1
1
1
1
1
1
1
1
1
1
1
1
1
1
1
1
1
1
1
1
1
1
1
1
1
1
1
1
1
1
1
1
1
1
1
1
1
1
1
1
1
1
1
1
1
1
1
1
1
1
1
1
1
1
1
1
1
1
1
1
1
1
1
1
1
1
1
1
1
1
1
1
1
1
1
1
1
1
1
1
1
1
1
1
1
1
1
1
1
1
1
1
1
1
1
1
1
1
1
0.99999
0.99976
0.99036
0.60351
0.00097163
2.5926e-06
2.0405e-08
9.777e-10
2.4768e-10
2.7629e-10
6.5836e-10
2.1634e-09
9.0646e-09
3.274e-08
1.0126e-07
2.2252e-07
3.6771e-07
4.7374e-07
5.2858e-07
5.4517e-07
5.3697e-07
5.2229e-07
5.0853e-07
4.9212e-07
4.803e-07
4.7206e-07
4.6439e-07
4.5462e-07
4.405e-07
4.2405e-07
4.216e-07
4.6164e-07
5.9765e-07
7.1246e-07
5.6146e-07
3.8978e-07
1.7059e-07
7.8361e-08
2.8894e-08
1.7005e-08
8.3469e-09
6.0375e-09
4.6423e-09
5.2476e-09
6.0747e-09
8.0765e-09
9.5347e-09
1.0296e-08
1.0495e-08
1.0319e-08
9.9756e-09
9.5855e-09
9.2243e-09
8.9139e-09
8.6543e-09
8.4316e-09
8.2324e-09
8.0462e-09
7.8677e-09
7.6946e-09
7.5264e-09
7.363e-09
7.2045e-09
7.051e-09
6.9025e-09
6.759e-09
6.6204e-09
6.4865e-09
6.3572e-09
6.2325e-09
6.1123e-09
5.9964e-09
5.8847e-09
5.7773e-09
5.674e-09
5.5749e-09
5.4797e-09
5.3885e-09
5.3012e-09
5.2177e-09
5.138e-09
5.0619e-09
4.9894e-09
4.9205e-09
4.855e-09
4.7928e-09
4.7338e-09
4.678e-09
4.6253e-09
4.5755e-09
4.5286e-09
4.4844e-09
4.443e-09
4.4041e-09
4.3677e-09
4.3337e-09
4.3022e-09
4.2728e-09
4.2457e-09
4.2208e-09
4.1979e-09
4.177e-09
4.158e-09
4.1409e-09
4.1256e-09
4.1121e-09
4.1008e-09
4.0919e-09
4.0834e-09
4.0675e-09
4.0373e-09
4.0265e-09
4.1155e-09
4.3712e-09
4.4832e-09
3.3146e-09
2.4477e-09
3.0699e-09
4.0136e-09
7.0309e-09
1
1
1
1
1
1
1
1
1
1
1
1
1
1
1
1
1
1
1
1
1
1
1
1
1
1
1
1
1
1
1
1
1
1
1
1
1
1
1
1
1
1
1
1
1
1
1
1
1
1
1
1
1
1
1
1
1
1
1
1
1
1
1
1
1
1
1
1
1
1
1
1
1
1
1
1
1
1
1
1
1
1
1
1
1
1
1
1
1
1
1
1
1
1
1
1
1
1
1
1
1
1
1
1
1
1
1
1
1
1
1
1
1
1
1
1
1
1
1
1
1
1
1
1
1
1
1
1
1
1
1
1
1
1
1
1
1
1
1
1
1
1
1
1
1
1
1
1
1
1
1
1
1
1
1
1
1
1
1
1
1
1
1
1
1
1
1
1
1
1
1
1
1
1
1
1
1
1
1
1
1
1
1
1
1
1
1
1
1
1
1
1
1
1
1
1
1
1
1
1
1
1
1
1
1
1
1
1
1
1
1
1
1
1
1
1
1
1
1
1
1
1
1
1
1
1
1
1
1
1
1
1
1
1
1
1
1
1
1
1
1
1
1
1
1
1
1
1
1
1
1
1
1
1
1
1
1
1
1
1
1
1
1
1
1
1
1
1
1
1
1
1
1
1
1
1
1
1
1
1
1
1
0.99998
0.99955
0.97253
0.063503
8.7897e-05
3.763e-07
7.8027e-09
9.4621e-10
4.2582e-10
4.5707e-10
1.1168e-09
3.2933e-09
1.2435e-08
4.0828e-08
1.1912e-07
2.4486e-07
3.8342e-07
4.7894e-07
5.2124e-07
5.3322e-07
5.2891e-07
5.1207e-07
4.9779e-07
4.8564e-07
4.7606e-07
4.6571e-07
4.5403e-07
4.3678e-07
4.2356e-07
4.2842e-07
4.7702e-07
6.0204e-07
6.5994e-07
7.0091e-07
4.9933e-07
3.3149e-07
1.5119e-07
8.28e-08
2.8504e-08
1.6411e-08
8.1281e-09
5.9277e-09
4.5683e-09
5.1536e-09
5.9687e-09
7.9597e-09
9.4299e-09
1.0197e-08
1.0376e-08
1.0167e-08
9.7952e-09
9.3989e-09
9.0485e-09
8.7554e-09
8.5108e-09
8.2974e-09
8.1023e-09
7.9185e-09
7.7421e-09
7.5714e-09
7.4056e-09
7.2448e-09
7.0889e-09
6.9381e-09
6.7923e-09
6.6516e-09
6.5158e-09
6.3848e-09
6.2584e-09
6.1367e-09
6.0195e-09
5.9066e-09
5.7981e-09
5.6939e-09
5.5938e-09
5.4978e-09
5.4059e-09
5.3178e-09
5.2337e-09
5.1533e-09
5.0766e-09
5.0035e-09
4.9339e-09
4.8677e-09
4.8048e-09
4.7452e-09
4.6887e-09
4.6352e-09
4.5846e-09
4.5369e-09
4.492e-09
4.4498e-09
4.4101e-09
4.373e-09
4.3383e-09
4.306e-09
4.2761e-09
4.2484e-09
4.2229e-09
4.1995e-09
4.1782e-09
4.1589e-09
4.1414e-09
4.1259e-09
4.1128e-09
4.1022e-09
4.0921e-09
4.0748e-09
4.0431e-09
4.031e-09
4.119e-09
4.3738e-09
4.485e-09
3.3153e-09
2.4478e-09
3.0696e-09
4.0129e-09
7.0294e-09
1
1
1
1
1
1
1
1
1
1
1
1
1
1
1
1
1
1
1
1
1
1
1
1
1
1
1
1
1
1
1
1
1
1
1
1
1
1
1
1
1
1
1
1
1
1
1
1
1
1
1
1
1
1
1
1
1
1
1
1
1
1
1
1
1
1
1
1
1
1
1
1
1
1
1
1
1
1
1
1
1
1
1
1
1
1
1
1
1
1
1
1
1
1
1
1
1
1
1
1
1
1
1
1
1
1
1
1
1
1
1
1
1
1
1
1
1
1
1
1
1
1
1
1
1
1
1
1
1
1
1
1
1
1
1
1
1
1
1
1
1
1
1
1
1
1
1
1
1
1
1
1
1
1
1
1
1
1
1
1
1
1
1
1
1
1
1
1
1
1
1
1
1
1
1
1
1
1
1
1
1
1
1
1
1
1
1
1
1
1
1
1
1
1
1
1
1
1
1
1
1
1
1
1
1
1
1
1
1
1
1
1
1
1
1
1
1
1
1
1
1
1
1
1
1
1
1
1
1
1
1
1
1
1
1
1
1
1
1
1
1
1
1
1
1
1
1
1
1
1
1
1
1
1
1
1
1
1
1
1
1
1
1
1
1
1
1
1
1
1
1
1
1
1
1
1
1
1
1
1
1
1
1
1
0.99995
0.998
0.88481
0.0092807
3.1719e-05
3.7361e-07
1.6189e-08
1.9723e-09
8.7656e-10
7.8883e-10
1.6112e-09
4.239e-09
1.562e-08
5.1921e-08
1.3749e-07
2.6424e-07
3.9386e-07
4.8193e-07
5.2316e-07
5.2804e-07
5.195e-07
5.053e-07
4.9217e-07
4.7907e-07
4.6844e-07
4.5268e-07
4.3716e-07
4.2383e-07
4.2904e-07
4.618e-07
5.4377e-07
7.0587e-07
7.6378e-07
7.6835e-07
5.1678e-07
3.2997e-07
1.4701e-07
7.9948e-08
2.7753e-08
1.6042e-08
7.9808e-09
5.8701e-09
4.5918e-09
5.2861e-09
6.2247e-09
8.3346e-09
9.7758e-09
1.0375e-08
1.0354e-08
1.002e-08
9.6061e-09
9.2185e-09
8.8899e-09
8.6131e-09
8.3746e-09
8.1638e-09
7.971e-09
7.7897e-09
7.616e-09
7.4479e-09
7.2849e-09
7.1268e-09
6.9737e-09
6.8258e-09
6.683e-09
6.5452e-09
6.4124e-09
6.2844e-09
6.1611e-09
6.0425e-09
5.9284e-09
5.8187e-09
5.7134e-09
5.6123e-09
5.5154e-09
5.4226e-09
5.3337e-09
5.2487e-09
5.1676e-09
5.0901e-09
5.0162e-09
4.9458e-09
4.8788e-09
4.8152e-09
4.7547e-09
4.6974e-09
4.6431e-09
4.5917e-09
4.5432e-09
4.4975e-09
4.4544e-09
4.414e-09
4.3762e-09
4.3409e-09
4.308e-09
4.2775e-09
4.2493e-09
4.2233e-09
4.1995e-09
4.1779e-09
4.1582e-09
4.1407e-09
4.1256e-09
4.1131e-09
4.1013e-09
4.0823e-09
4.0491e-09
4.0356e-09
4.1224e-09
4.3762e-09
4.4863e-09
3.3155e-09
2.4474e-09
3.0686e-09
4.0112e-09
7.0259e-09
1
1
1
1
1
1
1
1
1
1
1
1
1
1
1
1
1
1
1
1
1
1
1
1
1
1
1
1
1
1
1
1
1
1
1
1
1
1
1
1
1
1
1
1
1
1
1
1
1
1
1
1
1
1
1
1
1
1
1
1
1
1
1
1
1
1
1
1
1
1
1
1
1
1
1
1
1
1
1
1
1
1
1
1
1
1
1
1
1
1
1
1
1
1
1
1
1
1
1
1
1
1
1
1
1
1
1
1
1
1
1
1
1
1
1
1
1
1
1
1
1
1
1
1
1
1
1
1
1
1
1
1
1
1
1
1
1
1
1
1
1
1
1
1
1
1
1
1
1
1
1
1
1
1
1
1
1
1
1
1
1
1
1
1
1
1
1
1
1
1
1
1
1
1
1
1
1
1
1
1
1
1
1
1
1
1
1
1
1
1
1
1
1
1
1
1
1
1
1
1
1
1
1
1
1
1
1
1
1
1
1
1
1
1
1
1
1
1
1
1
1
1
1
1
1
1
1
1
1
1
1
1
1
1
1
1
1
1
1
1
1
1
1
1
1
1
1
1
1
1
1
1
1
1
1
1
1
1
1
1
1
1
1
1
1
1
1
1
1
1
1
1
1
1
1
1
1
1
1
1
1
1
1
1
1
0.99999
0.99984
0.99493
0.80873
0.0079479
4.8773e-05
6.1474e-07
2.6083e-08
2.8326e-09
1.1427e-09
9.0887e-10
1.7708e-09
5.1523e-09
1.7753e-08
5.7648e-08
1.4931e-07
2.8505e-07
4.1309e-07
4.8866e-07
5.2028e-07
5.2265e-07
5.1485e-07
5.0064e-07
4.875e-07
4.706e-07
4.5437e-07
4.3578e-07
4.2406e-07
4.202e-07
4.3454e-07
4.7749e-07
5.6139e-07
7.112e-07
7.5264e-07
7.4846e-07
5e-07
3.2004e-07
1.4335e-07
7.797e-08
2.7239e-08
1.6055e-08
8.3155e-09
6.4603e-09
5.2929e-09
6.1891e-09
7.1332e-09
9.0862e-09
1.0119e-08
1.0366e-08
1.0175e-08
9.8127e-09
9.4234e-09
9.0609e-09
8.7414e-09
8.4689e-09
8.2347e-09
8.0286e-09
7.8403e-09
7.6631e-09
7.4928e-09
7.3278e-09
7.1678e-09
7.0126e-09
6.8624e-09
6.7174e-09
6.5776e-09
6.4428e-09
6.3131e-09
6.1882e-09
6.068e-09
5.9525e-09
5.8416e-09
5.735e-09
5.6328e-09
5.5348e-09
5.441e-09
5.3511e-09
5.2652e-09
5.1831e-09
5.1046e-09
5.0298e-09
4.9585e-09
4.8906e-09
4.826e-09
4.7647e-09
4.7064e-09
4.6512e-09
4.599e-09
4.5496e-09
4.5031e-09
4.4593e-09
4.4182e-09
4.3797e-09
4.3437e-09
4.3102e-09
4.2792e-09
4.2506e-09
4.2242e-09
4.2001e-09
4.1781e-09
4.1584e-09
4.1412e-09
4.1268e-09
4.113e-09
4.0923e-09
4.0574e-09
4.0423e-09
4.1278e-09
4.3806e-09
4.4895e-09
3.317e-09
2.4478e-09
3.0684e-09
4.0103e-09
7.0236e-09
1
1
1
1
1
1
1
1
1
1
1
1
1
1
1
1
1
1
1
1
1
1
1
1
1
1
1
1
1
1
1
1
1
1
1
1
1
1
1
1
1
1
1
1
1
1
1
1
1
1
1
1
1
1
1
1
1
1
1
1
1
1
1
1
1
1
1
1
1
1
1
1
1
1
1
1
1
1
1
1
1
1
1
1
1
1
1
1
1
1
1
1
1
1
1
1
1
1
1
1
1
1
1
1
1
1
1
1
1
1
1
1
1
1
1
1
1
1
1
1
1
1
1
1
1
1
1
1
1
1
1
1
1
1
1
1
1
1
1
1
1
1
1
1
1
1
1
1
1