/*--------------------------------*- C++ -*----------------------------------*\
| =========                 |                                                 |
| \\      /  F ield         | OpenFOAM: The Open Source CFD Toolbox           |
|  \\    /   O peration     | Version:  5.x                                   |
|   \\  /    A nd           | Web:      www.OpenFOAM.org                      |
|    \\/     M anipulation  |                                                 |
\*---------------------------------------------------------------------------*/
FoamFile
{
    version     2.0;
    format      ascii;
    class       volScalarField;
    location    "145";
    object      gamma;
}
// * * * * * * * * * * * * * * * * * * * * * * * * * * * * * * * * * * * * * //

dimensions      [0 0 0 0 0 0 0];

internalField   nonuniform List<scalar> 
86400
(
1.05e-06
1.301e-06
2.026e-06
3.816e-06
8.304e-06
1.326e-05
1.565e-05
1.743e-05
1.97e-05
1.835e-05
2.462e-05
2.734e-05
2.781e-05
1.963e-05
1.524e-05
1.709e-05
4.548e-05
0.0001471
0.0003401
0.0005323
0.0007026
0.0009569
0.001808
0.002397
0.002436
0.002953
0.002604
0.00241
0.002156
0.001935
0.001672
0.001592
0.00165
0.001876
0.002456
0.003949
0.005379
0.006289
0.005282
0.004938
0.004195
0.004365
0.004071
0.003055
0.002718
0.003074
0.004328
0.005677
0.007358
0.006844
0.006806
0.007137
0.007693
0.008658
0.009603
0.01163
0.01416
0.015
0.01412
0.01279
0.01044
0.01027
0.01005
0.01089
0.01377
0.01839
0.02006
0.02063
0.01674
0.01531
0.01813
0.02513
0.02926
0.02766
0.02567
0.0246
0.02309
0.02642
0.0311
0.03051
0.02954
0.02665
0.02553
0.02885
0.03762
0.04213
0.04471
0.04133
0.04108
0.03975
0.03289
0.03263
0.03407
0.04222
0.04597
0.04744
0.03903
0.03565
0.03382
0.03151
0.0285
0.02192
0.01652
0.01116
0.007613
0.007504
0.01039
0.01476
0.01205
0.007342
0.003651
0.002358
0.002286
0.002639
0.002629
0.002435
0.002271
0.002158
0.002169
0.002201
0.00219
0.002116
0.001949
0.001727
0.001591
0.001552
0.001479
0.001428
0.001394
0.001323
0.001189
0.001339
0.001261
0.0009751
0.0007639
0.00064
0.0006784
0.0009251
0.0005552
0.0001837
6.281e-05
2.965e-05
2.554e-05
1.803e-05
5.469e-06
1.203e-06
3.607e-07
9.745e-08
5.806e-08
8.505e-08
1.494e-07
9.212e-07
1.075e-05
7.266e-05
0.0002945
0.0008225
0.001056
0.001997
0.156
0.9968
1.34e-06
1.427e-06
2.018e-06
3.372e-06
7.546e-06
1.213e-05
1.381e-05
1.331e-05
1.097e-05
8.639e-06
1.15e-05
1.545e-05
2.305e-05
2.773e-05
2.456e-05
2.088e-05
4.678e-05
0.0001452
0.0004019
0.001071
0.001703
0.002152
0.003142
0.004144
0.004341
0.004474
0.004116
0.003889
0.003844
0.003221
0.002812
0.002709
0.00294
0.003497
0.004789
0.007658
0.01113
0.0144
0.01371
0.01322
0.01109
0.01055
0.01
0.007792
0.005938
0.005813
0.006566
0.00786
0.01041
0.01128
0.01218
0.01387
0.01633
0.01868
0.01627
0.01352
0.01127
0.009228
0.00771
0.007687
0.006836
0.006655
0.006138
0.006097
0.006929
0.01044
0.01293
0.01541
0.01446
0.01529
0.01913
0.02516
0.02207
0.01716
0.01282
0.01339
0.01806
0.02841
0.03726
0.03731
0.03379
0.02987
0.03207
0.03803
0.05267
0.06212
0.06996
0.06671
0.07032
0.07499
0.07202
0.07513
0.07514
0.07089
0.06217
0.05203
0.03887
0.03279
0.02971
0.02664
0.02639
0.02702
0.02946
0.02675
0.01866
0.01508
0.01709
0.02124
0.0205
0.01488
0.007259
0.004335
0.003265
0.002996
0.002689
0.002691
0.003256
0.004496
0.00604
0.006935
0.007446
0.00759
0.007284
0.006596
0.006141
0.006063
0.005717
0.005411
0.005173
0.004881
0.00448
0.004411
0.003476
0.002619
0.002108
0.001578
0.001354
0.001281
0.0006846
0.0002086
8.535e-05
3.384e-05
1.931e-05
1.258e-05
5.52e-06
2.631e-06
1.551e-06
1.013e-06
1.514e-06
2.776e-06
6.112e-06
2.403e-05
0.0001226
0.0005353
0.002851
0.01514
0.05839
0.4447
0.8677
0.997
2.039e-06
1.987e-06
2.55e-06
3.642e-06
7.501e-06
1.111e-05
1.154e-05
9.939e-06
6.734e-06
5.949e-06
8.442e-06
1.595e-05
2.705e-05
4.354e-05
3.815e-05
3.795e-05
9.443e-05
0.0003049
0.0006525
0.001595
0.001943
0.002225
0.003238
0.004597
0.00432
0.00502
0.005511
0.006425
0.007886
0.007529
0.006422
0.006866
0.006973
0.006836
0.006947
0.008003
0.009629
0.01152
0.009474
0.008735
0.007578
0.008389
0.009057
0.009198
0.007642
0.007776
0.00943
0.01154
0.01524
0.01799
0.01602
0.01303
0.01083
0.009572
0.007299
0.006887
0.005998
0.004802
0.003919
0.004028
0.004025
0.004348
0.004634
0.005587
0.005903
0.007302
0.008648
0.01047
0.01035
0.01229
0.01471
0.01492
0.01063
0.009039
0.008784
0.01392
0.02654
0.04636
0.05905
0.06235
0.05591
0.04665
0.04893
0.05699
0.08293
0.09667
0.1095
0.1086
0.09714
0.08076
0.06072
0.04692
0.03529
0.03471
0.03346
0.03204
0.02964
0.02892
0.02561
0.02361
0.02589
0.03161
0.04131
0.04239
0.0342
0.02883
0.0271
0.03157
0.03236
0.02515
0.01551
0.01145
0.007804
0.006484
0.005717
0.006136
0.006984
0.008369
0.009097
0.008354
0.008062
0.008715
0.008613
0.00796
0.007585
0.007583
0.007208
0.006808
0.00634
0.006097
0.005914
0.005414
0.003485
0.001948
0.001301
0.0009585
0.001012
0.00117
0.0008439
0.0003685
0.0001643
7.861e-05
5.869e-05
4.414e-05
2.69e-05
1.565e-05
1.102e-05
1.128e-05
2.645e-05
5.944e-05
0.0001161
0.0003034
0.001254
0.005677
0.03132
0.1951
0.7116
0.9526
0.9941
0.9998
3.245e-06
3.084e-06
3.305e-06
3.833e-06
6.598e-06
8.339e-06
7.227e-06
5.501e-06
3.874e-06
4.566e-06
6.09e-06
7.322e-06
7.817e-06
1.78e-05
2.26e-05
3.761e-05
9.605e-05
0.0001768
0.0001997
0.0002819
0.0002732
0.000229
0.0004379
0.0007827
0.0007778
0.001132
0.001734
0.002573
0.004269
0.005511
0.004868
0.006355
0.007457
0.00794
0.007753
0.007889
0.008257
0.009628
0.00715
0.006832
0.007053
0.009628
0.01473
0.01978
0.01328
0.009433
0.006617
0.005633
0.006194
0.008038
0.00648
0.004705
0.00414
0.003892
0.003042
0.002973
0.002434
0.001964
0.001877
0.002403
0.00283
0.003621
0.004438
0.005035
0.004972
0.00588
0.00634
0.007124
0.007291
0.01033
0.01482
0.01488
0.01163
0.01115
0.009668
0.01645
0.03111
0.04679
0.04719
0.05053
0.04438
0.03914
0.0409
0.04384
0.05084
0.05366
0.05739
0.05662
0.05606
0.05904
0.06198
0.06089
0.04802
0.04615
0.04104
0.03727
0.03548
0.03636
0.03211
0.03228
0.03327
0.03526
0.0488
0.0518
0.03869
0.03058
0.02267
0.02383
0.02572
0.02586
0.01697
0.01416
0.009106
0.007092
0.006172
0.007726
0.01054
0.01424
0.01569
0.01399
0.0127
0.01435
0.01459
0.01378
0.01336
0.01348
0.01298
0.0124
0.01207
0.01194
0.0121
0.01079
0.00646
0.003443
0.001976
0.001069
0.0008115
0.0006433
0.0005093
0.0003635
0.0002045
0.0001067
8.626e-05
7.712e-05
7.827e-05
8.181e-05
0.000108
0.0001722
0.000596
0.001751
0.004838
0.01134
0.03289
0.1186
0.545
0.8847
0.9838
0.999
1
1
6.172e-06
6.62e-06
6.425e-06
6.692e-06
8.215e-06
7.312e-06
4.22e-06
3.43e-06
3.042e-06
4.58e-06
5.177e-06
3.48e-06
1.947e-06
4.679e-06
8.187e-06
3.169e-05
0.0001436
0.0001287
5.051e-05
4.664e-05
4.966e-05
4.425e-05
0.0001243
0.0002083
0.0002155
0.0004535
0.001201
0.003355
0.007432
0.008528
0.004266
0.003529
0.00298
0.002836
0.002872
0.002749
0.002312
0.003075
0.003274
0.004837
0.00529
0.005891
0.004362
0.003386
0.001627
0.001087
0.0006561
0.000635
0.0009623
0.002087
0.002521
0.002632
0.002375
0.002499
0.00221
0.002347
0.00211
0.001835
0.002326
0.003786
0.005612
0.008185
0.01155
0.01313
0.01003
0.007552
0.006384
0.005641
0.005121
0.006822
0.009765
0.008746
0.008655
0.01042
0.01195
0.01761
0.02968
0.03225
0.02837
0.03288
0.02987
0.02647
0.0289
0.0343
0.04369
0.05304
0.05819
0.0529
0.0494
0.05067
0.05026
0.05834
0.0526
0.05222
0.04407
0.04293
0.03167
0.02972
0.02753
0.02479
0.01771
0.01069
0.009192
0.009808
0.01046
0.01619
0.0186
0.01774
0.01807
0.02579
0.02004
0.01969
0.01416
0.01174
0.009265
0.008765
0.007767
0.00729
0.00571
0.005249
0.004684
0.005239
0.005305
0.005162
0.005191
0.00541
0.00549
0.005514
0.005645
0.005849
0.006144
0.005101
0.002826
0.001484
0.0006324
0.0002984
0.0002199
0.0002448
0.0002285
0.0002203
0.0001708
0.000146
0.0001755
0.0002343
0.0004088
0.0007039
0.001312
0.002888
0.01089
0.02696
0.06801
0.1632
0.459
0.8108
0.9584
0.9948
0.9996
1
1
1
8.808e-06
1.189e-05
1.144e-05
1.186e-05
8.945e-06
5.773e-06
2.733e-06
2.54e-06
3.326e-06
7.42e-06
8.738e-06
3.273e-06
1.045e-06
1.786e-06
7.281e-06
3.893e-05
0.0001541
9.285e-05
3.116e-05
3.414e-05
6.142e-05
7.352e-05
0.0002341
0.0001308
6.013e-05
6.55e-05
0.00015
0.0004948
0.002051
0.002243
0.0009366
0.0006471
0.0005418
0.0005721
0.0009161
0.001064
0.0007074
0.0007595
0.0008389
0.0008545
0.000543
0.0003843
0.0001474
7.313e-05
3.321e-05
1.261e-05
2.699e-06
2.184e-06
3.827e-06
1.319e-05
2.747e-05
6.347e-05
0.0001225
0.0002025
0.0002554
0.000247
0.0001946
0.0002309
0.0007136
0.002374
0.005929
0.008608
0.007725
0.006727
0.004655
0.003393
0.004883
0.006337
0.006382
0.008897
0.01336
0.01081
0.01053
0.01159
0.01039
0.011
0.01101
0.01058
0.01074
0.0167
0.02322
0.03624
0.05079
0.06912
0.08812
0.09981
0.09557
0.08082
0.07914
0.09386
0.1026
0.07872
0.03861
0.02007
0.00941
0.005969
0.003112
0.002728
0.002243
0.002869
0.003087
0.002641
0.002212
0.002096
0.001966
0.003223
0.003698
0.004978
0.006796
0.007366
0.005009
0.004923
0.004195
0.004277
0.003714
0.003375
0.002836
0.002572
0.002169
0.002103
0.001819
0.001861
0.001794
0.001747
0.001752
0.001792
0.001852
0.001927
0.002028
0.002149
0.002263
0.002032
0.001435
0.001063
0.0005881
0.0003211
0.0002082
0.0002084
0.0002247
0.0002998
0.0003286
0.0003615
0.0005401
0.00104
0.002838
0.006989
0.01564
0.03607
0.09671
0.2493
0.5975
0.8196
0.9417
0.9901
0.9989
0.9999
1
1
1
1
9.989e-06
1.691e-05
1.489e-05
1.326e-05
8.128e-06
4.912e-06
2.311e-06
3.424e-06
9.003e-06
2.611e-05
2.672e-05
7.591e-06
1.094e-06
1.202e-06
2.88e-06
2.3e-05
0.0001524
0.0002067
0.000115
0.0001818
0.0004444
0.0005072
0.001046
0.0002201
5.664e-05
3.472e-05
6.069e-05
0.0001621
0.0008829
0.001002
0.0004253
0.0002104
0.0001968
0.0002781
0.000516
0.0005469
0.0002504
0.0002019
0.000296
0.0003076
0.0001275
4.346e-05
6.682e-06
1.647e-06
6.724e-07
1.243e-07
1.519e-08
1.01e-08
1.907e-08
1.048e-07
3.513e-07
1.111e-06
3.015e-06
7.293e-06
1.188e-05
1.26e-05
1.227e-05
2.302e-05
0.0001624
0.000893
0.003871
0.007394
0.006854
0.007301
0.007575
0.005777
0.009789
0.01357
0.01308
0.01281
0.01834
0.01022
0.007501
0.007134
0.007021
0.009068
0.009246
0.008325
0.006473
0.007905
0.01181
0.02681
0.04865
0.07107
0.1207
0.1874
0.2654
0.3587
0.4733
0.5507
0.4796
0.2996
0.1044
0.04036
0.01285
0.006472
0.002499
0.001841
0.001014
0.001451
0.001719
0.001471
0.001345
0.000909
0.0005398
0.0005095
0.0005006
0.0004811
0.000963
0.001247
0.001374
0.001812
0.001943
0.002314
0.002338
0.00217
0.001573
0.001323
0.001064
0.001155
0.001117
0.001131
0.001077
0.0009888
0.0009398
0.000914
0.0009023
0.0009011
0.0009214
0.0009626
0.001027
0.001108
0.001094
0.001122
0.0008518
0.0006843
0.0007168
0.001016
0.001545
0.003027
0.005106
0.008224
0.01466
0.02954
0.06262
0.1282
0.2958
0.5655
0.7791
0.9122
0.9723
0.9935
0.9989
0.9999
1
1
1
1
1
1
1.519e-05
2.463e-05
1.689e-05
1.331e-05
8.759e-06
5.803e-06
3.869e-06
1.035e-05
2.561e-05
4.197e-05
4.159e-05
9.964e-06
1.355e-06
1.247e-06
2.587e-06
1.666e-05
0.0001266
0.0003869
0.0007374
0.003049
0.006994
0.00683
0.008411
0.001674
0.0002961
6.533e-05
7.669e-05
0.0001251
0.0005179
0.0006939
0.0004068
0.0003547
0.0003562
0.0005219
0.0007931
0.0007178
0.0003053
0.0002913
0.0006001
0.0003364
7.995e-05
1.125e-05
1.402e-06
2.183e-07
1.057e-07
1.246e-08
1.174e-09
7.142e-10
1.578e-09
9.897e-09
4.455e-08
2.231e-07
1.145e-06
4.624e-06
7.762e-06
3.821e-06
1.873e-06
2.356e-06
1.598e-05
0.0001252
0.001106
0.003928
0.005186
0.007071
0.008947
0.007803
0.01264
0.01443
0.01008
0.005703
0.005558
0.003305
0.002391
0.002473
0.003617
0.005298
0.006605
0.0124
0.01527
0.03261
0.07149
0.2469
0.5226
0.6995
0.7959
0.8908
0.9569
0.9818
0.9927
0.9954
0.9934
0.9856
0.9591
0.8764
0.6994
0.402
0.08147
0.03396
0.01039
0.005767
0.003059
0.003164
0.001673
0.0005817
0.0001766
0.0001128
0.0001726
0.000205
0.0003709
0.0002385
0.0002037
0.0002213
0.0003282
0.0005321
0.0006262
0.0006335
0.0007683
0.0008941
0.0009159
0.001282
0.001506
0.001693
0.001819
0.001745
0.001558
0.001461
0.001425
0.001416
0.001454
0.001564
0.001806
0.002318
0.003279
0.004853
0.005762
0.005805
0.006197
0.007974
0.01346
0.03017
0.06219
0.1214
0.2423
0.4641
0.6577
0.827
0.9247
0.9744
0.9932
0.9985
0.9997
0.9999
1
1
1
1
1
1
1
1
2.235e-05
2.767e-05
1.572e-05
1.133e-05
7.817e-06
6.612e-06
8.739e-06
2.102e-05
3.261e-05
3.725e-05
2.269e-05
7.22e-06
2.629e-06
2.979e-06
6.612e-06
2.641e-05
8.444e-05
0.0002771
0.0007667
0.001742
0.004555
0.008103
0.0174
0.009014
0.002704
0.0007557
0.0003514
0.000373
0.0008002
0.001136
0.0008839
0.001207
0.001075
0.001322
0.001101
0.0005811
0.0001651
0.0002189
0.0004349
0.000125
2.053e-05
2.266e-06
3.659e-07
8.25e-08
8.186e-08
1.824e-08
3.897e-09
2.8e-09
5.83e-09
1.079e-08
2.767e-08
8.61e-08
3.378e-07
1.235e-06
2.336e-06
1.355e-06
5.661e-07
5.77e-07
2.659e-06
2.519e-05
0.0004185
0.002804
0.006845
0.01066
0.01077
0.005599
0.005159
0.004561
0.002757
0.00149
0.001539
0.0012
0.001186
0.001785
0.006328
0.02437
0.07071
0.268
0.5407
0.7495
0.884
0.9539
0.9803
0.9915
0.9963
0.9991
0.9998
0.9999
1
1
0.9999
0.9994
0.9982
0.9945
0.9906
0.982
0.9579
0.8978
0.6863
0.2725
0.08139
0.04983
0.01941
0.005018
0.001663
0.0005957
0.0004666
0.000334
0.0003068
8.627e-05
5.412e-05
3.416e-05
3.98e-05
7.008e-05
0.0001636
0.0004345
0.0009744
0.001159
0.0009827
0.0008884
0.000918
0.001209
0.001565
0.001765
0.001688
0.001591
0.001672
0.001866
0.00219
0.002744
0.003858
0.006419
0.01222
0.02324
0.0403
0.06487
0.1059
0.1926
0.3553
0.5649
0.7172
0.837
0.9137
0.9628
0.9858
0.9958
0.9988
0.9997
0.9999
1
1
1
1
1
1
1
1
1
1
1
1.852e-05
1.851e-05
1.194e-05
9.46e-06
8.836e-06
1.121e-05
1.404e-05
2.099e-05
2.187e-05
1.934e-05
8.804e-06
4.868e-06
4.4e-06
7.359e-06
2.175e-05
5.424e-05
0.0001803
0.0002528
0.0004071
0.0003633
0.00072
0.001862
0.007309
0.0129
0.008756
0.003013
0.0008507
0.0007456
0.0007888
0.00147
0.002227
0.004689
0.004452
0.004557
0.001616
0.0005852
0.0002527
0.000385
0.0003548
4.953e-05
5.935e-06
6.203e-07
1.794e-07
1.077e-07
1.468e-07
5.452e-08
3.421e-08
3.944e-08
4.054e-08
2.789e-08
2.618e-08
3.253e-08
1.431e-07
8.183e-07
1.974e-06
1.609e-06
9.839e-07
8.644e-07
2.411e-06
2.132e-05
0.0002708
0.002264
0.005019
0.006579
0.004786
0.001893
0.001059
0.001138
0.001111
0.001089
0.00212
0.003338
0.009181
0.03477
0.1607
0.4977
0.7315
0.877
0.9455
0.9799
0.9944
0.9984
0.9995
0.9998
0.9999
1
1
1
1
1
1
1
1
0.9999
0.9999
0.9998
0.9995
0.9984
0.9928
0.9704
0.9181
0.8583
0.7235
0.3999
0.09005
0.02949
0.01258
0.005456
0.002401
0.0003355
7.952e-05
2.3e-05
1.502e-05
1.142e-05
3.064e-05
0.0001403
0.0005254
0.001081
0.001336
0.001023
0.001212
0.002484
0.004019
0.005715
0.007617
0.009719
0.01495
0.02403
0.03687
0.05064
0.07473
0.12
0.2052
0.3808
0.5677
0.7079
0.812
0.886
0.9396
0.9763
0.9912
0.9969
0.9987
0.9995
0.9998
0.9999
1
1
1
1
1
1
1
1
1
1
1
1
1
1
1.604e-05
1.313e-05
1.069e-05
1.262e-05
1.81e-05
1.399e-05
7.428e-06
5.487e-06
3.81e-06
3.769e-06
3.462e-06
3.686e-06
8.904e-06
3.056e-05
7.138e-05
0.0001773
0.0003161
0.0001775
0.0001592
7.683e-05
0.000139
0.0003091
0.002313
0.01035
0.01653
0.009376
0.005674
0.00359
0.002069
0.002768
0.002954
0.003644
0.002366
0.001763
0.0006523
0.000263
0.0001945
0.0005135
0.0003355
5.347e-05
4.357e-06
5.992e-07
1.202e-07
6.985e-08
6.271e-08
7.386e-08
3.301e-07
9.358e-07
9.934e-07
2.587e-07
4.575e-08
1.917e-08
8.542e-08
1.046e-06
6.521e-06
1.747e-05
1.765e-05
1.219e-05
1.933e-05
0.0001207
0.0006943
0.002515
0.003549
0.003323
0.001792
0.0008903
0.0006376
0.001215
0.002653
0.005923
0.01698
0.07658
0.325
0.7167
0.8922
0.9565
0.9855
0.9949
0.9983
0.9995
0.9999
0.9999
1
1
1
1
1
1
1
1
1
1
1
1
1
1
1
1
0.9998
0.9993
0.998
0.9963
0.9924
0.9837
0.966
0.9158
0.7904
0.5123
0.1317
0.02227
0.004573
0.0008017
0.0002487
0.0001074
0.0002169
0.0008228
0.002595
0.004398
0.005531
0.004285
0.005694
0.01356
0.02568
0.04142
0.06401
0.08578
0.1243
0.2087
0.3984
0.5804
0.7418
0.8419
0.9116
0.9585
0.9843
0.9938
0.9973
0.9986
0.9993
0.9998
0.9999
1
1
1
1
1
1
1
1
1
1
1
1
1
1
1
1
1
1
1
1.475e-05
1.18e-05
1.18e-05
1.736e-05
2.738e-05
2.053e-05
6.158e-06
2.823e-06
1.241e-06
2.241e-06
3.067e-06
1.186e-05
4.441e-05
0.0001014
0.0002227
0.0005913
0.0005795
0.000362
0.0002131
7.658e-05
0.0001273
0.0003776
0.002936
0.01141
0.02072
0.01413
0.01314
0.00847
0.005985
0.005911
0.005554
0.00435
0.002094
0.0009504
0.0005669
0.000318
0.0003428
0.001032
0.0003876
4.97e-05
3.344e-06
2.791e-07
3.811e-08
2.399e-08
1.385e-08
3.323e-08
2.709e-07
2.155e-06
2.477e-06
5.789e-07
5.47e-08
2.304e-08
1.386e-07
3.077e-06
3.398e-05
0.0001038
0.0001396
0.0001317
0.0001592
0.0004309
0.0006123
0.000771
0.0006795
0.0007116
0.0005566
0.0009324
0.002045
0.009424
0.04585
0.2044
0.595
0.8398
0.9412
0.9811
0.9937
0.9979
0.9994
0.9998
0.9999
1
1
1
1
1
1
1
1
1
1
1
1
1
1
1
1
1
1
1
1
0.9999
0.9999
0.9999
0.9998
0.9996
0.9992
0.9977
0.9939
0.9865
0.9671
0.9302
0.8557
0.6827
0.4147
0.1428
0.1006
0.1296
0.1439
0.1321
0.1371
0.1159
0.1455
0.254
0.3823
0.5362
0.7059
0.8374
0.9241
0.9588
0.9817
0.991
0.9959
0.998
0.9992
0.9996
0.9999
1
1
1
1
1
1
1
1
1
1
1
1
1
1
1
1
1
1
1
1
1
1
1
1
1
7.917e-06
7.586e-06
8.532e-06
1.237e-05
2.595e-05
2.316e-05
6.24e-06
2.725e-06
2.378e-06
4.844e-06
1.187e-05
6.452e-05
0.0001435
0.0002961
0.0004949
0.0007422
0.0006621
0.0004904
0.000258
0.0001058
0.000159
0.0004591
0.002453
0.006795
0.01375
0.01216
0.01791
0.01475
0.01402
0.0116
0.01181
0.00751
0.00421
0.002433
0.001407
0.0008829
0.001017
0.002245
0.0005697
9.067e-05
7.982e-06
7.253e-07
6.18e-08
4.296e-08
2.189e-08
7.581e-08
9.849e-07
1.333e-05
1.274e-05
3.539e-06
1.997e-07
5.601e-08
2.022e-07
4.017e-06
3.381e-05
0.000128
0.0002382
0.0002886
0.0003978
0.0006806
0.0005717
0.0005058
0.0003666
0.0007098
0.001794
0.008585
0.04705
0.4082
0.7869
0.9242
0.973
0.9903
0.9962
0.9987
0.9996
0.9999
1
1
1
1
1
1
1
1
1
1
1
1
1
1
1
1
1
1
1
1
1
1
1
1
1
1
1
1
1
0.9999
0.9998
0.9995
0.9991
0.9987
0.998
0.9965
0.9935
0.9855
0.9762
0.9692
0.9507
0.9393
0.9409
0.9415
0.9597
0.9758
0.985
0.9916
0.9961
0.9983
0.9993
0.9996
0.9998
0.9999
1
1
1
1
1
1
1
1
1
1
1
1
1
1
1
1
1
1
1
1
1
1
1
1
1
1
1
1
1
1
9.174e-06
8.192e-06
1.005e-05
1.235e-05
2.616e-05
3.505e-05
1.408e-05
1.043e-05
8.674e-06
1.848e-05
4.493e-05
0.0001869
0.0002585
0.0003866
0.0004069
0.0004812
0.000495
0.00042
0.000292
0.000241
0.0004221
0.001001
0.002482
0.003959
0.004741
0.004061
0.007384
0.007358
0.009718
0.0127
0.0159
0.01296
0.01059
0.005956
0.002788
0.001363
0.001071
0.001857
0.0009141
0.000371
6.532e-05
9.662e-06
1.077e-06
7.514e-07
4.305e-07
1.443e-06
1.083e-05
0.0001246
0.0001542
6.952e-05
5.715e-06
2.096e-06
4.399e-06
2.601e-05
0.0001091
0.0002064
0.0002431
0.0003001
0.0003512
0.0005551
0.0006421
0.000893
0.001807
0.009793
0.0579
0.4621
0.8259
0.9523
0.9842
0.9958
0.999
0.9997
0.9999
0.9999
1
1
1
1
1
1
1
1
1
1
1
1
1
1
1
1
1
1
1
1
1
1
1
1
1
1
1
1
1
1
1
1
1
1
1
1
1
0.9999
0.9999
0.9999
0.9997
0.9995
0.999
0.9988
0.999
0.9993
0.9996
0.9998
0.9999
0.9999
1
1
1
1
1
1
1
1
1
1
1
1
1
1
1
1
1
1
1
1
1
1
1
1
1
1
1
1
1
1
1
1
1
1
1
1
1.872e-05
1.605e-05
2.323e-05
1.409e-05
2.162e-05
1.87e-05
1.389e-05
2.696e-05
5.445e-05
5.138e-05
6.808e-05
0.0001216
0.0001831
0.0002574
0.0003098
0.0001839
5.656e-05
1.883e-05
8.881e-06
7.194e-06
2.016e-05
8.604e-05
0.0003735
0.0009411
0.001563
0.00159
0.002526
0.002469
0.002892
0.003251
0.004389
0.006399
0.009676
0.007356
0.003282
0.001326
0.0008269
0.00155
0.001525
0.001535
0.0007517
0.0002309
4.824e-05
3.698e-05
2.14e-05
6.911e-05
0.0002499
0.001452
0.00199
0.001264
0.0002409
7.847e-05
6.977e-05
0.0001089
0.0002057
0.0001958
0.0001921
0.0002255
0.0003654
0.0009686
0.003232
0.01203
0.05811
0.4708
0.8206
0.943
0.9828
0.9964
0.999
0.9997
0.9999
1
1
1
1
1
1
1
1
1
1
1
1
1
1
1
1
1
1
1
1
1
1
1
1
1
1
1
1
1
1
1
1
1
1
1
1
1
1
1
1
1
1
1
1
1
1
1
1
1
1
1
1
1
1
1
1
1
1
1
1
1
1
1
1
1
1
1
1
1
1
1
1
1
1
1
1
1
1
1
1
1
1
1
1
1
1
1
1
1
4.77e-05
4.476e-05
7.803e-05
2.537e-05
2.102e-05
1.736e-05
2.585e-05
9.732e-05
0.0002397
0.0001341
8.569e-05
6.177e-05
5.159e-05
0.0001587
0.0001198
2.237e-05
4.097e-06
7.928e-07
3.452e-07
2.972e-07
1.408e-06
1.464e-05
0.0001177
0.0004954
0.00139
0.001374
0.001957
0.002209
0.002046
0.002093
0.003172
0.006399
0.01285
0.01341
0.006091
0.002116
0.001332
0.002049
0.002929
0.004888
0.005846
0.003634
0.001619
0.001509
0.0009131
0.0008386
0.001098
0.002501
0.004591
0.006546
0.004266
0.001782
0.001155
0.0005768
0.0005276
0.0003308
0.0003496
0.0005529
0.002094
0.007907
0.06497
0.4272
0.7836
0.9298
0.9786
0.9932
0.9985
0.9998
0.9999
1
1
1
1
1
1
1
1
1
1
1
1
1
1
1
1
1
1
1
1
1
1
1
1
1
1
1
1
1
1
1
1
1
1
1
1
1
1
1
1
1
1
1
1
1
1
1
1
1
1
1
1
1
1
1
1
1
1
1
1
1
1
1
1
1
1
1
1
1
1
1
1
1
1
1
1
1
1
1
1
1
1
1
1
1
1
1
1
1
1
1
9.494e-05
0.0001009
0.0002786
8.331e-05
2.687e-05
1.709e-05
4.32e-05
0.0001807
0.0004716
0.0002685
9.602e-05
5.397e-05
6.046e-05
0.0002266
5.169e-05
3.831e-06
6.078e-07
1.353e-07
9.899e-08
9.837e-08
6.189e-07
7.063e-06
7.234e-05
0.0004323
0.002285
0.001857
0.002922
0.003056
0.001968
0.001523
0.001813
0.0041
0.009545
0.01189
0.006682
0.003391
0.003303
0.004422
0.007645
0.01211
0.01726
0.01637
0.01367
0.009452
0.004791
0.002326
0.001736
0.002442
0.004749
0.007279
0.005535
0.002802
0.001883
0.00107
0.001244
0.001168
0.002015
0.006011
0.03445
0.2311
0.7499
0.921
0.9797
0.9951
0.9991
0.9998
1
1
1
1
1
1
1
1
1
1
1
1
1
1
1
1
1
1
1
1
1
1
1
1
1
1
1
1
1
1
1
1
1
1
1
1
1
1
1
1
1
1
1
1
1
1
1
1
1
1
1
1
1
1
1
1
1
1
1
1
1
1
1
1
1
1
1
1
1
1
1
1
1
1
1
1
1
1
1
1
1
1
1
1
1
1
1
1
1
1
1
1
1
1
0.0001592
0.0002006
0.0004405
0.0001504
3.851e-05
5.242e-05
0.0001283
0.0006323
0.0009109
0.0004234
0.0001027
4.431e-05
4.771e-05
0.0001259
1.049e-05
1.058e-06
3.297e-07
1.871e-07
2.707e-07
3.181e-07
1.687e-06
1.113e-05
0.0001302
0.000695
0.003732
0.002704
0.003676
0.004029
0.00311
0.002859
0.00295
0.005021
0.01043
0.01206
0.007537
0.005446
0.007154
0.009269
0.01264
0.0155
0.02202
0.02613
0.03831
0.02977
0.01471
0.005039
0.002074
0.001511
0.002278
0.003897
0.00388
0.003449
0.00392
0.00379
0.005434
0.01185
0.03995
0.1519
0.6698
0.9058
0.9727
0.9943
0.9993
0.9999
1
1
1
1
1
1
1
1
1
1
1
1
1
1
1
1
1
1
1
1
1
1
1
1
1
1
1
1
1
1
1
1
1
1
1
1
1
1
1
1
1
1
1
1
1
1
1
1
1
1
1
1
1
1
1
1
1
1
1
1
1
1
1
1
1
1
1
1
1
1
1
1
1
1
1
1
1
1
1
1
1
1
1
1
1
1
1
1
1
1
1
1
1
1
1
1
0.0001664
0.0002487
0.0003957
0.0001487
3.354e-05
8.645e-05
0.000348
0.002368
0.002598
0.001047
0.0002334
7.313e-05
4.203e-05
6.052e-05
4.75e-06
7.881e-07
9.514e-07
1.803e-06
4.043e-06
5.028e-06
1.793e-05
6.611e-05
0.0006528
0.002923
0.01176
0.007112
0.007662
0.006351
0.004529
0.003433
0.003756
0.006103
0.01269
0.01595
0.01155
0.0101
0.01545
0.02129
0.02169
0.01546
0.01256
0.01105
0.01599
0.01615
0.01041
0.004922
0.002904
0.001367
0.001108
0.001619
0.001897
0.003264
0.008666
0.01695
0.03686
0.1374
0.5838
0.8562
0.9648
0.9924
0.9987
0.9998
1
1
1
1
1
1
1
1
1
1
1
1
1
1
1
1
1
1
1
1
1
1
1
1
1
1
1
1
1
1
1
1
1
1
1
1
1
1
1
1
1
1
1
1
1
1
1
1
1
1
1
1
1
1
1
1
1
1
1
1
1
1
1
1
1
1
1
1
1
1
1
1
1
1
1
1
1
1
1
1
1
1
1
1
1
1
1
1
1
1
1
1
1
1
1
1
1
1
0.0002959
0.0003326
0.0003949
0.0001818
4.734e-05
0.0002242
0.0008067
0.004064
0.004261
0.002431
0.0007006
0.0002806
0.000122
9.438e-05
1.084e-05
3.705e-06
1.064e-05
3.193e-05
7.784e-05
9.337e-05
0.0002666
0.0005921
0.00238
0.006833
0.01394
0.009013
0.007708
0.006753
0.005426
0.004419
0.004787
0.008091
0.01783
0.02597
0.02123
0.01752
0.01985
0.01882
0.01345
0.007205
0.00357
0.002705
0.003498
0.00568
0.007363
0.007153
0.005991
0.002534
0.001641
0.001513
0.002378
0.005052
0.02608
0.07785
0.4227
0.8172
0.9464
0.9856
0.9978
0.9998
1
1
1
1
1
1
1
1
1
1
1
1
1
1
1
1
1
1
1
1
1
1
1
1
1
1
1
1
0.9999
1
1
1
1
1
1
1
1
1
1
1
1
1
1
1
1
1
1
1
1
1
1
1
1
1
1
1
1
1
1
1
1
1
1
1
1
1
1
1
1
1
1
1
1
1
1
1
1
1
1
1
1
1
1
1
1
1
1
1
1
1
1
1
1
1
1
1
1
1
1
1
0.0006684
0.0006588
0.0007462
0.0002507
8.011e-05
0.000279
0.0006062
0.002879
0.004065
0.003844
0.001447
0.001175
0.0006793
0.0004262
8.147e-05
3.676e-05
7.548e-05
0.0001597
0.0003277
0.0006835
0.001681
0.002665
0.005021
0.006359
0.005767
0.005401
0.007458
0.005535
0.004146
0.002931
0.002219
0.003299
0.009701
0.02121
0.02513
0.02218
0.01987
0.01745
0.01159
0.006422
0.002562
0.001443
0.001404
0.002195
0.003848
0.006446
0.008739
0.004833
0.004673
0.004223
0.008601
0.02112
0.1719
0.6312
0.9009
0.9786
0.9964
0.9993
0.9999
1
1
1
1
1
1
1
1
1
1
1
1
1
1
1
1
1
1
1
1
1
1
1
0.9999
0.9999
0.9994
0.9992
0.9985
0.9971
0.9969
0.9967
0.9973
0.9992
0.9997
0.9998
0.9998
0.9999
0.9999
1
1
1
1
1
1
1
1
1
1
1
1
1
1
1
1
1
1
1
1
1
1
1
1
1
1
1
1
1
1
1
1
1
1
1
1
1
1
1
1
1
1
1
1
1
1
1
1
1
1
1
1
1
1
1
1
1
1
1
1
1
1
1
0.001501
0.00133
0.001333
0.000351
0.0001429
0.0002459
0.0002402
0.001123
0.002753
0.00442
0.00274
0.004776
0.002355
0.00164
0.000568
0.0003909
0.000503
0.0006705
0.0006959
0.001406
0.00362
0.004465
0.005707
0.004328
0.003025
0.003899
0.009393
0.008769
0.006277
0.004008
0.002024
0.002134
0.004825
0.01453
0.02902
0.03526
0.03262
0.02303
0.0137
0.007936
0.00363
0.001779
0.001364
0.001863
0.00251
0.005114
0.009705
0.009214
0.01664
0.03216
0.1141
0.5448
0.9038
0.9775
0.9967
0.9995
0.9999
1
1
1
1
1
1
1
1
1
1
1
1
1
1
1
1
1
1
1
1
1
1
0.9998
0.9989
0.9974
0.9956
0.9885
0.9573
0.9323
0.9031
0.8772
0.8739
0.864
0.8669
0.9061
0.9392
0.9624
0.9781
0.9868
0.9926
0.9971
0.9991
0.9996
0.9998
0.9999
1
1
1
1
1
1
1
1
1
1
1
1
1
1
1
1
1
1
1
1
1
1
1
1
1
1
1
1
1
1
1
1
1
1
1
1
1
1
1
1
1
1
1
1
1
1
1
1
1
1
1
1
1
1
1
1
1
1
0.002596
0.002198
0.002567
0.0005828
0.0002771
0.0001163
5.513e-05
0.0002474
0.001469
0.004804
0.007953
0.01502
0.007269
0.005697
0.002759
0.002134
0.001327
0.001345
0.0008819
0.001586
0.002721
0.002854
0.003715
0.002649
0.003599
0.00643
0.01834
0.0176
0.01292
0.006323
0.002701
0.001779
0.002668
0.009034
0.0263
0.04955
0.0545
0.03075
0.01651
0.01046
0.005835
0.003613
0.00297
0.002973
0.003614
0.006652
0.01484
0.02749
0.08007
0.2965
0.7483
0.9403
0.993
0.999
0.9999
1
1
1
1
1
1
1
1
1
1
1
1
1
1
1
1
1
1
1
1
1
0.9999
0.9993
0.9967
0.9857
0.9507
0.882
0.8103
0.7057
0.5062
0.3859
0.2701
0.2503
0.2152
0.1872
0.1661
0.1565
0.1964
0.3512
0.5323
0.619
0.7641
0.8871
0.9544
0.9799
0.9921
0.9961
0.9989
0.9995
0.9998
0.9999
1
1
1
1
1
1
1
1
1
1
1
1
1
1
1
1
1
1
1
1
1
1
1
1
1
1
1
1
1
1
1
1
1
1
1
1
1
1
1
1
1
1
1
1
1
1
1
1
1
1
1
1
0.9999
0.9998
0.002074
0.001999
0.002496
0.0006127
0.0005361
0.000116
4.944e-05
0.0001363
0.0009923
0.002672
0.007701
0.01339
0.008391
0.007649
0.005259
0.005232
0.00336
0.002673
0.002137
0.001958
0.002413
0.002153
0.002376
0.001886
0.002614
0.003961
0.0112
0.01451
0.01574
0.0104
0.004039
0.001495
0.001191
0.002586
0.009278
0.02591
0.03721
0.02096
0.01152
0.008791
0.008349
0.008185
0.00905
0.008935
0.01091
0.02236
0.06039
0.1975
0.6431
0.8908
0.9767
0.9962
0.9996
0.9999
1
1
1
1
1
1
1
1
1
1
1
1
1
1
1
1
1
1
1
0.9999
0.9995
0.9979
0.9876
0.9437
0.8394
0.6193
0.4343
0.2485
0.1233
0.05705
0.02383
0.01163
0.007768
0.011
0.01166
0.01394
0.01117
0.009036
0.01163
0.02335
0.04684
0.08063
0.1289
0.1612
0.2352
0.3576
0.5063
0.7273
0.9303
0.9781
0.9924
0.9976
0.9994
0.9998
1
1
1
1
1
1
1
1
1
1
1
1
1
1
1
1
1
1
1
1
1
1
1
1
1
1
1
1
1
1
1
1
1
1
1
1
1
1
1
1
1
1
1
1
1
1
1
0.9999
0.9996
0.9978
0.9914
0.9725
0.001605
0.002134
0.003582
0.0007997
0.0008015
9.811e-05
4.451e-05
7.716e-05
0.001078
0.002109
0.006216
0.006775
0.005603
0.005738
0.004009
0.003966
0.003819
0.004072
0.004182
0.002404
0.001373
0.0008046
0.001106
0.001712
0.003126
0.003211
0.006443
0.008874
0.009697
0.006874
0.003218
0.001054
0.0007061
0.001509
0.0052
0.01671
0.02857
0.02026
0.01193
0.0107
0.01385
0.01679
0.02148
0.02336
0.03342
0.07137
0.2655
0.6991
0.9223
0.9845
0.9977
0.9997
1
1
1
1
1
1
1
1
1
1
1
1
1
1
1
1
1
1
1
0.9999
0.9994
0.9953
0.9721
0.8982
0.7055
0.4036
0.1382
0.05714
0.02005
0.01005
0.004739
0.002248
0.001036
0.0007425
0.0004559
0.0009457
0.00166
0.002363
0.001935
0.00163
0.002128
0.004523
0.008563
0.01402
0.01852
0.01993
0.02808
0.04663
0.07324
0.1139
0.2013
0.435
0.6845
0.8708
0.9603
0.9868
0.9958
0.9971
0.9988
0.9997
0.9999
1
1
1
1
1
1
1
1
1
1
1
1
1
1
1
1
1
1
1
1
1
1
1
1
1
1
1
1
1
1
1
1
1
1
1
1
1
1
0.9999
0.9998
0.9991
0.996
0.9845
0.9446
0.8253
0.6759
0.5336
0.001682
0.002695
0.00598
0.001181
0.0009303
9.654e-05
6.331e-05
0.0001144
0.0008442
0.001371
0.003539
0.004117
0.005714
0.005891
0.002847
0.002637
0.003968
0.007506
0.008067
0.00274
0.000627
0.0002745
0.0004814
0.0012
0.003283
0.003386
0.004056
0.005734
0.006471
0.004477
0.0025
0.0009246
0.0006198
0.001316
0.003487
0.01004
0.01546
0.01174
0.00852
0.009794
0.01645
0.02435
0.03551
0.04662
0.09454
0.4504
0.8297
0.9662
0.9957
0.9994
0.9999
1
1
1
1
1
1
1
1
1
1
1
1
1
1
1
1
1
1
0.9999
0.999
0.9951
0.9775
0.9028
0.6583
0.1617
0.04059
0.01575
0.006373
0.00357
0.001806
0.001275
0.0006368
0.0003331
0.0001371
0.0001776
0.0001529
0.0003846
0.0007351
0.00138
0.001156
0.0009014
0.0009781
0.001856
0.003111
0.004814
0.005373
0.004422
0.005605
0.008312
0.01306
0.01952
0.03746
0.0768
0.11
0.189
0.4104
0.6166
0.7776
0.8701
0.9683
0.9977
0.9998
1
1
1
1
1
1
1
1
1
1
1
1
1
1
1
1
1
1
1
1
1
1
1
1
1
1
1
1
1
1
1
1
1
1
0.9999
0.9998
0.9993
0.9974
0.9885
0.9592
0.8709
0.6784
0.4429
0.227
0.1009
0.05292
0.0156
0.0009917
0.001684
0.005515
0.001261
0.0009247
0.000125
8.488e-05
0.0001656
0.001146
0.001357
0.001874
0.002393
0.005516
0.006923
0.002269
0.001298
0.001449
0.003984
0.006489
0.003513
0.0005413
0.0002088
0.0002825
0.0009797
0.003065
0.003433
0.003341
0.004206
0.003666
0.002371
0.00146
0.0009375
0.0009033
0.002536
0.005198
0.009222
0.009484
0.007053
0.004625
0.005285
0.008891
0.01645
0.03949
0.1195
0.4939
0.8719
0.9726
0.997
0.9997
1
1
1
1
1
1
1
1
1
1
1
1
1
1
1
1
1
1
0.9999
0.9994
0.994
0.9607
0.8511
0.4706
0.1049
0.03381
0.01094
0.004639
0.002475
0.001321
0.001098
0.0007549
0.0006389
0.0003288
0.0002916
0.0002159
0.0003441
0.0003336
0.0007966
0.001412
0.002507
0.002081
0.00152
0.001624
0.001882
0.002527
0.003501
0.003577
0.002964
0.003008
0.003387
0.003668
0.003589
0.005098
0.007215
0.009639
0.01863
0.04919
0.1066
0.2661
0.5919
0.8942
0.9948
0.9998
1
1
1
1
1
1
1
1
1
1
1
1
1
1
1
1
1
1
1
1
1
1
1
1
1
1
1
1
1
0.9999
0.9998
0.9995
0.9982
0.9951
0.9859
0.9606
0.8908
0.7659
0.5001
0.2471
0.1021
0.04816
0.01897
0.007577
0.003012
0.001193
0.0001304
0.0003724
0.0006553
0.003259
0.001062
0.0008135
0.0002531
0.0001828
0.0003296
0.002436
0.001789
0.001263
0.001915
0.005481
0.007905
0.002712
0.001161
0.001029
0.003103
0.006109
0.006649
0.001095
0.000516
0.0003976
0.001222
0.002671
0.003579
0.003189
0.003467
0.00259