/*--------------------------------*- C++ -*----------------------------------*\
| =========                 |                                                 |
| \\      /  F ield         | OpenFOAM: The Open Source CFD Toolbox           |
|  \\    /   O peration     | Version:  5.x                                   |
|   \\  /    A nd           | Web:      www.OpenFOAM.org                      |
|    \\/     M anipulation  |                                                 |
\*---------------------------------------------------------------------------*/
FoamFile
{
    version     2.0;
    format      ascii;
    class       volScalarField;
    location    "40";
    object      gamma;
}
// * * * * * * * * * * * * * * * * * * * * * * * * * * * * * * * * * * * * * //

dimensions      [0 0 0 0 0 0 0];

internalField   nonuniform List<scalar> 
80000
(
1
1
1
1
1
1
1
1
1
1
1
1
1
1
1
1
1
1
1
1
1
0.99999
0.99999
0.99999
0.99999
0.99999
0.99999
0.99999
0.99999
0.99998
0.99998
0.99998
0.99998
0.99998
0.99997
0.99997
0.99997
0.99997
0.99996
0.99996
0.99996
0.99995
0.99995
0.99995
0.99995
0.99994
0.99994
0.99994
0.99993
0.99993
0.99993
0.99993
0.99993
0.99992
0.99992
0.99992
0.99992
0.99992
0.99992
0.99992
0.99991
0.99991
0.99991
0.99991
0.99991
0.99991
0.99991
0.99991
0.99991
0.99991
0.99991
0.99991
0.99991
0.99991
0.99991
0.99991
0.99991
0.99991
0.99991
0.99991
0.99991
0.99991
0.99991
0.99991
0.99991
0.99991
0.99991
0.99991
0.99992
0.99992
0.99993
0.99993
0.99994
0.99994
0.99995
0.99995
0.99994
0.99993
0.99993
0.99992
0.99989
0.99986
0.99984
0.99982
0.99983
0.99983
0.99982
0.99982
0.99981
0.99981
0.99981
0.99981
0.99981
0.9998
0.9998
0.9998
0.9998
0.9998
0.99979
0.99979
0.99979
0.99979
0.99979
0.99979
0.99978
0.99978
0.99978
0.99978
0.99978
0.99978
0.99978
0.99978
0.99977
0.99977
0.99977
0.99977
0.99977
0.99977
0.99977
0.99977
0.99977
0.99977
0.99978
0.99978
0.99978
0.99978
0.99978
0.99978
0.99978
0.99979
0.99979
0.99979
0.99979
0.9998
0.9998
0.9998
0.9998
0.99981
0.99981
0.99981
0.99981
0.99981
0.99982
0.99982
0.99982
0.99982
0.99982
0.99983
0.99983
0.99983
0.99983
0.99983
0.99983
0.99983
0.99984
0.99984
0.99984
0.99984
0.99984
0.99984
0.99984
0.99984
0.99984
0.99984
0.99984
0.99984
0.99984
0.99984
0.99984
0.99984
0.99984
0.99984
0.99984
0.99984
0.99984
0.99984
0.99984
0.99984
0.99983
0.99983
0.99983
0.99983
0.99983
0.99983
0.99982
0.99982
0.99982
0.99982
0.99981
0.99981
0.99981
0.9998
0.9998
0.9998
0.99979
0.99979
0.99979
0.99978
0.99978
0.99978
0.99977
0.99977
0.99977
0.99976
0.99976
0.99976
0.99976
0.99976
0.99976
0.99976
0.99976
0.99976
0.99976
0.99976
0.99976
0.99976
0.99976
0.99976
0.99976
0.99976
0.99976
0.99976
0.99975
0.99975
0.99974
0.99974
0.99973
0.99971
0.9997
0.99967
0.99965
0.99963
0.99959
0.99948
0.99922
0.99883
0.99833
0.99786
0.99743
0.99673
0.99492
0.98963
0.97227
0.90489
0.64968
0.11934
0.020539
0.004657
0.0015291
0.00066941
0.0004404
0.00040397
0.00051417
0.00070709
0.00092362
0.00095822
0.00088648
0.00090322
0.0012619
0.0020679
0.0038475
0.0056338
0.0072188
0.0076414
0.0056162
0.0035724
0.0019733
0.0013653
0.0012401
0.0015311
0.001611
0.0015962
0.001561
0.0015269
0.0014945
0.0014728
0.0014619
0.0014552
0.0014527
0.0014432
0.0014288
0.0014101
0.0013902
0.0013742
0.0013625
0.0013537
0.0013493
0.0013428
0.0013247
0.0012939
0.0012568
0.001248
0.0013412
0.0016762
0.0020279
0.0014064
0.00077869
0.00036263
0.00022315
0.00019337
0.00024553
0.00025824
0.00025289
0.0002458
0.0002413
0.00023864
0.00023627
0.0002338
0.00023128
0.0002288
0.00022638
0.00022401
0.00022169
0.00021942
0.00021719
0.000215
0.00021285
0.00021074
0.00020867
0.00020663
0.00020464
0.00020268
0.00020076
0.00019888
0.00019705
0.00019525
0.0001935
0.0001918
0.00019014
0.00018854
0.00018698
0.00018548
0.00018403
0.00018264
0.00018131
0.00018004
0.00017882
0.00017767
0.00017659
0.00017557
0.00017461
0.00017372
0.00017289
0.00017213
0.00017143
0.0001708
0.00017022
0.00016971
0.00016925
0.00016885
0.0001685
0.0001682
0.00016795
0.00016773
0.00016756
0.00016742
0.00016732
0.00016724
0.00016719
0.00016715
0.00016713
0.00016713
0.00016713
0.00016714
0.00016715
0.00016716
0.00016719
0.00016723
0.00016724
0.0001671
0.00016667
0.00016656
0.00016823
0.00017285
0.00017489
0.00015302
0.00013366
0.00014704
0.00016628
0.00021645
1
1
1
1
1
1
1
1
1
1
1
1
1
1
1
1
1
1
1
1
1
1
1
1
0.99999
0.99999
0.99999
0.99999
0.99999
0.99999
0.99999
0.99999
0.99998
0.99998
0.99998
0.99998
0.99998
0.99997
0.99997
0.99997
0.99997
0.99996
0.99996
0.99996
0.99996
0.99995
0.99995
0.99995
0.99995
0.99995
0.99994
0.99994
0.99994
0.99994
0.99994
0.99994
0.99993
0.99993
0.99993
0.99993
0.99993
0.99993
0.99993
0.99993
0.99993
0.99993
0.99993
0.99993
0.99993
0.99993
0.99993
0.99993
0.99993
0.99993
0.99993
0.99993
0.99993
0.99993
0.99993
0.99993
0.99993
0.99993
0.99993
0.99993
0.99993
0.99993
0.99994
0.99994
0.99994
0.99995
0.99995
0.99995
0.99995
0.99994
0.99993
0.99993
0.99992
0.99991
0.9999
0.99989
0.99987
0.99987
0.99986
0.99985
0.99985
0.99985
0.99985
0.99985
0.99984
0.99984
0.99984
0.99984
0.99984
0.99983
0.99983
0.99983
0.99983
0.99983
0.99983
0.99983
0.99982
0.99982
0.99982
0.99982
0.99982
0.99982
0.99982
0.99982
0.99982
0.99981
0.99981
0.99981
0.99981
0.99981
0.99981
0.99981
0.99981
0.99981
0.99981
0.99981
0.99981
0.99981
0.99981
0.99981
0.99981
0.99982
0.99982
0.99982
0.99982
0.99982
0.99982
0.99982
0.99983
0.99983
0.99983
0.99983
0.99983
0.99984
0.99984
0.99984
0.99984
0.99984
0.99985
0.99985
0.99985
0.99985
0.99985
0.99985
0.99986
0.99986
0.99986
0.99986
0.99986
0.99986
0.99986
0.99986
0.99986
0.99986
0.99986
0.99986
0.99987
0.99987
0.99987
0.99987
0.99987
0.99987
0.99987
0.99987
0.99987
0.99987
0.99987
0.99987
0.99987
0.99986
0.99986
0.99986
0.99986
0.99986
0.99986
0.99986
0.99986
0.99986
0.99985
0.99985
0.99985
0.99985
0.99985
0.99984
0.99984
0.99984
0.99984
0.99983
0.99983
0.99983
0.99983
0.99982
0.99982
0.99982
0.99981
0.99981
0.99981
0.9998
0.9998
0.9998
0.9998
0.9998
0.99979
0.99979
0.99979
0.99979
0.99979
0.99979
0.99979
0.99979
0.99979
0.99979
0.99979
0.99979
0.99979
0.99979
0.99979
0.99979
0.99978
0.99978
0.99977
0.99976
0.99976
0.99974
0.99973
0.99971
0.99969
0.99967
0.99964
0.99958
0.99945
0.99922
0.99888
0.99846
0.99791
0.99722
0.99596
0.99346
0.98761
0.97241
0.93037
0.81664
0.5373
0.12364
0.027124
0.0065661
0.002167
0.00097121
0.00064344
0.00052341
0.00047873
0.00047069
0.00054734
0.00078069
0.0014074
0.0027545
0.0043275
0.0057198
0.0062884
0.0055922
0.0037319
0.0022774
0.0013493
0.0010696
0.0010697
0.001284
0.001337
0.0013195
0.0012861
0.0012574
0.0012349
0.0012214
0.0012144
0.0012103
0.0012016
0.0011895
0.0011753
0.0011593
0.0011435
0.0011319
0.001123
0.0011172
0.0011107
0.0011014
0.0010821
0.0010551
0.0010307
0.0010478
0.0011758
0.0013221
0.001266
0.00078256
0.00041889
0.0002162
0.00016014
0.00015731
0.00019349
0.0002008
0.00019607
0.00019065
0.00018725
0.00018518
0.00018331
0.00018136
0.0001794
0.00017746
0.00017558
0.00017374
0.00017193
0.00017017
0.00016844
0.00016674
0.00016507
0.00016343
0.00016182
0.00016024
0.00015869
0.00015717
0.00015568
0.00015422
0.00015279
0.0001514
0.00015003
0.00014871
0.00014741
0.00014616
0.00014494
0.00014377
0.00014264
0.00014155
0.0001405
0.0001395
0.00013854
0.00013764
0.00013678
0.00013597
0.00013521
0.0001345
0.00013384
0.00013323
0.00013267
0.00013215
0.00013169
0.00013126
0.00013089
0.00013055
0.00013026
0.00013
0.00012978
0.00012959
0.00012944
0.00012931
0.0001292
0.00012912
0.00012906
0.00012901
0.00012898
0.00012896
0.00012895
0.00012895
0.00012894
0.00012895
0.00012896
0.00012899
0.00012899
0.00012888
0.00012853
0.00012845
0.00012981
0.0001335
0.00013509
0.00011753
0.00010225
0.00011329
0.00012811
0.00016628
1
1
1
1
1
1
1
1
1
1
1
1
1
1
1
1
1
1
1
1
1
1
1
1
0.99999
0.99999
0.99999
0.99999
0.99999
0.99999
0.99999
0.99999
0.99998
0.99998
0.99998
0.99998
0.99998
0.99998
0.99997
0.99997
0.99997
0.99997
0.99996
0.99996
0.99996
0.99996
0.99996
0.99995
0.99995
0.99995
0.99995
0.99995
0.99994
0.99994
0.99994
0.99994
0.99994
0.99994
0.99994
0.99994
0.99993
0.99993
0.99993
0.99993
0.99993
0.99993
0.99993
0.99993
0.99993
0.99993
0.99993
0.99993
0.99993
0.99993
0.99993
0.99993
0.99993
0.99993
0.99993
0.99993
0.99993
0.99993
0.99994
0.99994
0.99994
0.99995
0.99995
0.99995
0.99995
0.99994
0.99994
0.99994
0.99993
0.99992
0.99991
0.9999
0.99989
0.99987
0.99987
0.99987
0.99986
0.99986
0.99986
0.99985
0.99986
0.99986
0.99986
0.99985
0.99985
0.99985
0.99985
0.99985
0.99984
0.99984
0.99984
0.99984
0.99984
0.99984
0.99984
0.99984
0.99983
0.99983
0.99983
0.99983
0.99983
0.99983
0.99983
0.99983
0.99983
0.99983
0.99983
0.99982
0.99982
0.99982
0.99982
0.99982
0.99982
0.99982
0.99982
0.99982
0.99982
0.99982
0.99982
0.99982
0.99983
0.99983
0.99983
0.99983
0.99983
0.99983
0.99983
0.99983
0.99984
0.99984
0.99984
0.99984
0.99984
0.99984
0.99985
0.99985
0.99985
0.99985
0.99985
0.99985
0.99986
0.99986
0.99986
0.99986
0.99986
0.99986
0.99986
0.99986
0.99987
0.99987
0.99987
0.99987
0.99987
0.99987
0.99987
0.99987
0.99987
0.99987
0.99987
0.99987
0.99987
0.99987
0.99987
0.99987
0.99987
0.99987
0.99987
0.99987
0.99987
0.99987
0.99987
0.99987
0.99987
0.99987
0.99987
0.99986
0.99986
0.99986
0.99986
0.99986
0.99986
0.99985
0.99985
0.99985
0.99985
0.99985
0.99984
0.99984
0.99984
0.99984
0.99983
0.99983
0.99983
0.99982
0.99982
0.99982
0.99982
0.99981
0.99981
0.99981
0.99981
0.9998
0.9998
0.9998
0.9998
0.9998
0.9998
0.9998
0.9998
0.9998
0.99979
0.99979
0.99979
0.99979
0.99979
0.99979
0.99979
0.99978
0.99978
0.99977
0.99977
0.99976
0.99975
0.99974
0.99972
0.9997
0.99968
0.99967
0.99965
0.99962
0.99954
0.99943
0.99922
0.99896
0.99861
0.99829
0.99786
0.99711
0.99531
0.99119
0.98231
0.9644
0.93198
0.85299
0.63985
0.16344
0.031185
0.0070198
0.002199
0.0008602
0.00047101
0.00037111
0.00044782
0.00075752
0.0016576
0.0031117
0.0047594
0.0056665
0.0052579
0.0039682
0.0024584
0.0014429
0.0010641
0.00097211
0.0010431
0.0011994
0.0012297
0.0012051
0.0011735
0.0011491
0.0011326
0.0011232
0.0011182
0.0011097
0.0010983
0.0010849
0.0010704
0.0010564
0.0010435
0.0010342
0.0010264
0.0010204
0.0010124
0.0010004
0.00097883
0.00095382
0.00094394
0.0009945
0.0011827
0.001181
0.00092283
0.00050987
0.00024778
0.00015123
0.000137
0.0001486
0.00017418
0.00017749
0.00017285
0.00016835
0.00016556
0.00016376
0.00016209
0.00016036
0.00015863
0.00015693
0.00015528
0.00015367
0.0001521
0.00015055
0.00014904
0.00014756
0.0001461
0.00014467
0.00014327
0.00014189
0.00014053
0.00013921
0.0001379
0.00013663
0.00013538
0.00013416
0.00013296
0.0001318
0.00013066
0.00012956
0.00012849
0.00012746
0.00012646
0.00012549
0.00012457
0.00012368
0.00012283
0.00012202
0.00012126
0.00012053
0.00011985
0.00011921
0.00011862
0.00011806
0.00011755
0.00011708
0.00011664
0.00011625
0.0001159
0.00011558
0.0001153
0.00011505
0.00011483
0.00011464
0.00011448
0.00011434
0.00011423
0.00011413
0.00011406
0.000114
0.00011395
0.00011391
0.00011389
0.00011387
0.00011386
0.00011385
0.00011385
0.00011387
0.00011387
0.00011377
0.00011346
0.00011339
0.00011461
0.00011793
0.00011936
0.00010358
8.9831e-05
9.9886e-05
0.00011329
0.00014704
1
1
1
1
1
1
1
1
1
1
1
1
1
1
1
1
1
1
1
1
1
1
1
1
0.99999
0.99999
0.99999
0.99999
0.99999
0.99999
0.99999
0.99999
0.99998
0.99998
0.99998
0.99998
0.99998
0.99998
0.99997
0.99997
0.99997
0.99997
0.99996
0.99996
0.99996
0.99996
0.99996
0.99995
0.99995
0.99995
0.99995
0.99995
0.99994
0.99994
0.99994
0.99994
0.99994
0.99994
0.99994
0.99994
0.99994
0.99994
0.99993
0.99993
0.99993
0.99993
0.99993
0.99993
0.99993
0.99993
0.99993
0.99993
0.99993
0.99993
0.99993
0.99993
0.99993
0.99993
0.99993
0.99994
0.99994
0.99994
0.99995
0.99995
0.99995
0.99995
0.99994
0.99994
0.99993
0.99993
0.99992
0.99991
0.9999
0.99988
0.99986
0.99986
0.99984
0.99982
0.99982
0.99982
0.99983
0.99984
0.99985
0.99985
0.99986
0.99985
0.99985
0.99985
0.99985
0.99985
0.99985
0.99985
0.99985
0.99985
0.99984
0.99984
0.99984
0.99984
0.99984
0.99984
0.99984
0.99984
0.99984
0.99983
0.99983
0.99983
0.99983
0.99983
0.99983
0.99983
0.99983
0.99983
0.99983
0.99983
0.99983
0.99983
0.99983
0.99983
0.99983
0.99983
0.99983
0.99983
0.99983
0.99983
0.99983
0.99983
0.99983
0.99983
0.99983
0.99983
0.99984
0.99984
0.99984
0.99984
0.99984
0.99984
0.99984
0.99985
0.99985
0.99985
0.99985
0.99985
0.99985
0.99985
0.99986
0.99986
0.99986
0.99986
0.99986
0.99986
0.99986
0.99986
0.99986
0.99986
0.99987
0.99987
0.99987
0.99987
0.99987
0.99987
0.99987
0.99987
0.99987
0.99987
0.99987
0.99987
0.99987
0.99987
0.99987
0.99987
0.99987
0.99987
0.99987
0.99987
0.99987
0.99987
0.99987
0.99987
0.99986
0.99986
0.99986
0.99986
0.99986
0.99986
0.99986
0.99985
0.99985
0.99985
0.99985
0.99985
0.99984
0.99984
0.99984
0.99984
0.99983
0.99983
0.99983
0.99982
0.99982
0.99982
0.99982
0.99981
0.99981
0.99981
0.99981
0.9998
0.9998
0.9998
0.9998
0.99979
0.99979
0.99979
0.99979
0.99979
0.99979
0.99978
0.99978
0.99978
0.99978
0.99977
0.99977
0.99977
0.99976
0.99975
0.99975
0.99974
0.99973
0.99971
0.9997
0.99968
0.99967
0.99965
0.99965
0.99964
0.99961
0.99957
0.99949
0.99937
0.99918
0.99908
0.99902
0.99899
0.9988
0.99846
0.99779
0.99657
0.99458
0.98938
0.9724
0.90855
0.67434
0.13199
0.020181
0.004128
0.0012701
0.00064527
0.00060234
0.00094691
0.0017994
0.0032268
0.0045068
0.0045891
0.0036032
0.0023579
0.0013879
0.0010085
0.0009019
0.00094586
0.0010656
0.0011514
0.0011507
0.0011187
0.0010889
0.0010686
0.0010575
0.0010527
0.0010461
0.0010346
0.0010209
0.0010057
0.00099171
0.00098029
0.00097008
0.00096279
0.00095643
0.00094837
0.00093848
0.00092297
0.00089848
0.00087622
0.0008871
0.0009883
0.0011195
0.0009039
0.00054554
0.00025717
0.00014586
0.00011163
0.00012526
0.00014704
0.00016077
0.0001598
0.00015522
0.00015164
0.0001494
0.00014782
0.00014629
0.00014473
0.00014317
0.00014165
0.00014018
0.00013874
0.00013734
0.00013597
0.00013462
0.0001333
0.00013201
0.00013074
0.00012949
0.00012826
0.00012706
0.00012588
0.00012472
0.00012359
0.00012247
0.00012138
0.00012032
0.00011928
0.00011826
0.00011728
0.00011632
0.00011539
0.00011449
0.00011362
0.00011278
0.00011197
0.0001112
0.00011047
0.00010977
0.0001091
0.00010848
0.00010788
0.00010733
0.00010681
0.00010633
0.00010588
0.00010547
0.00010509
0.00010474
0.00010443
0.00010415
0.00010389
0.00010366
0.00010346
0.00010329
0.00010314
0.000103
0.00010289
0.00010279
0.00010271
0.00010264
0.00010259
0.00010255
0.00010251
0.00010248
0.00010246
0.00010245
0.00010246
0.00010246
0.00010236
0.00010207
0.00010201
0.00010313
0.00010617
0.00010746
9.303e-05
8.0482e-05
8.9831e-05
0.00010225
0.00013366
1
1
1
1
1
1
1
1
1
1
1
1
1
1
1
1
1
1
1
1
1
0.99999
0.99999
0.99999
0.99999
0.99999
0.99999
0.99999
0.99999
0.99998
0.99998
0.99998
0.99998
0.99998
0.99997
0.99997
0.99997
0.99997
0.99997
0.99996
0.99996
0.99996
0.99995
0.99995
0.99995
0.99995
0.99994
0.99994
0.99994
0.99994
0.99993
0.99993
0.99993
0.99993
0.99993
0.99992
0.99992
0.99992
0.99992
0.99992
0.99992
0.99992
0.99992
0.99992
0.99991
0.99991
0.99991
0.99991
0.99991
0.99991
0.99991
0.99991
0.99991
0.99991
0.99991
0.99992
0.99992
0.99992
0.99993
0.99993
0.99993
0.99993
0.99993
0.99993
0.99992
0.99992
0.9999
0.99989
0.99987
0.99986
0.99985
0.99984
0.99983
0.9998
0.99978
0.99977
0.99977
0.99977
0.99979
0.9998
0.99981
0.99981
0.99982
0.99982
0.99982
0.99982
0.99982
0.99982
0.99982
0.99981
0.99981
0.99981
0.99981
0.99981
0.99981
0.99981
0.99981
0.99981
0.99981
0.9998
0.9998
0.9998
0.9998
0.9998
0.9998
0.9998
0.9998
0.9998
0.9998
0.9998
0.9998
0.9998
0.9998
0.99979
0.99979
0.99979
0.99979
0.99979
0.99979
0.99979
0.99979
0.99979
0.99979
0.99979
0.9998
0.9998
0.9998
0.9998
0.9998
0.9998
0.9998
0.9998
0.9998
0.9998
0.99981
0.99981
0.99981
0.99981
0.99981
0.99981
0.99981
0.99982
0.99982
0.99982
0.99982
0.99982
0.99982
0.99982
0.99983
0.99983
0.99983
0.99983
0.99983
0.99983
0.99983
0.99983
0.99983
0.99983
0.99983
0.99983
0.99984
0.99984
0.99984
0.99984
0.99984
0.99984
0.99984
0.99984
0.99984
0.99984
0.99984
0.99984
0.99984
0.99983
0.99983
0.99983
0.99983
0.99983
0.99983
0.99983
0.99983
0.99983
0.99983
0.99982
0.99982
0.99982
0.99982
0.99982
0.99981
0.99981
0.99981
0.99981
0.9998
0.9998
0.9998
0.99979
0.99979
0.99979
0.99978
0.99978
0.99978
0.99977
0.99977
0.99976
0.99976
0.99976
0.99975
0.99975
0.99975
0.99974
0.99974
0.99974
0.99973
0.99973
0.99973
0.99972
0.99972
0.99971
0.99971
0.9997
0.9997
0.99969
0.99968
0.99967
0.99966
0.99965
0.99964
0.99963
0.99961
0.99959
0.99958
0.99956
0.99956
0.99957
0.99957
0.99958
0.99956
0.99952
0.99945
0.99944
0.99949
0.99953
0.99953
0.99949
0.99939
0.99927
0.99918
0.99886
0.99756
0.9928
0.97604
0.91116
0.66781
0.1391
0.021015
0.0046282
0.0023499
0.001954
0.0022848
0.0027387
0.002874
0.0025219
0.0019301
0.0012698
0.00099681
0.00093698
0.001011
0.0011678
0.0013065
0.0013279
0.0012962
0.0012516
0.0012193
0.0011999
0.0011917
0.0011839
0.0011741
0.0011569
0.001139
0.0011229
0.0011103
0.0010997
0.0010903
0.0010823
0.0010723
0.0010614
0.0010489
0.0010284
0.00099869
0.00097771
0.0010182
0.0012042
0.0012009
0.00078542
0.00039558
0.00018486
0.00011823
0.00011858
0.00015585
0.00018409
0.00018795
0.00018274
0.00017741
0.00017396
0.00017175
0.00016998
0.00016822
0.00016644
0.00016468
0.00016297
0.0001613
0.00015968
0.0001581
0.00015655
0.00015504
0.00015356
0.0001521
0.00015068
0.00014928
0.0001479
0.00014655
0.00014523
0.00014393
0.00014265
0.0001414
0.00014018
0.00013898
0.00013781
0.00013666
0.00013555
0.00013446
0.00013341
0.00013239
0.0001314
0.00013045
0.00012953
0.00012865
0.00012781
0.000127
0.00012623
0.00012551
0.00012482
0.00012417
0.00012356
0.00012299
0.00012246
0.00012196
0.0001215
0.00012108
0.0001207
0.00012034
0.00012002
0.00011973
0.00011947
0.00011924
0.00011903
0.00011885
0.00011869
0.00011855
0.00011842
0.00011832
0.00011823
0.00011816
0.0001181
0.00011805
0.00011801
0.00011798
0.00011798
0.00011797
0.00011785
0.00011752
0.00011745
0.00011872
0.00012215
0.00012362
0.0001073
9.303e-05
0.00010358
0.00011753
0.00015302
1
1
1
1
1
1
1
1
1
1
1
1
1
1
1
1
1
1
1
0.99999
0.99999
0.99999
0.99999
0.99999
0.99999
0.99999
0.99998
0.99998
0.99998
0.99998
0.99998
0.99997
0.99997
0.99997
0.99997
0.99996
0.99996
0.99996
0.99995
0.99995
0.99995
0.99994
0.99994
0.99994
0.99993
0.99993
0.99993
0.99992
0.99992
0.99992
0.99992
0.99991
0.99991
0.99991
0.99991
0.9999
0.9999
0.9999
0.9999
0.9999
0.99989
0.99989
0.99989
0.99989
0.99989
0.99989
0.99989
0.99989
0.99989
0.99989
0.99989
0.99989
0.99989
0.9999
0.9999
0.99991
0.99991
0.99991
0.99991
0.99991
0.9999
0.99989
0.99989
0.99988
0.99986
0.99984
0.99982
0.99979
0.99978
0.99976
0.99974
0.99974
0.99973
0.99972
0.99972
0.99974
0.99976
0.99977
0.99977
0.99977
0.99977
0.99977
0.99977
0.99977
0.99977
0.99977
0.99977
0.99977
0.99977
0.99977
0.99977
0.99977
0.99977
0.99977
0.99977
0.99977
0.99977
0.99977
0.99977
0.99976
0.99976
0.99976
0.99976
0.99976
0.99976
0.99976
0.99976
0.99976
0.99976
0.99976
0.99976
0.99976
0.99976
0.99975
0.99975
0.99975
0.99975
0.99975
0.99975
0.99975
0.99975
0.99975
0.99975
0.99975
0.99975
0.99976
0.99976
0.99976
0.99976
0.99976
0.99976
0.99976
0.99976
0.99976
0.99976
0.99977
0.99977
0.99977
0.99977
0.99977
0.99977
0.99977
0.99978
0.99978
0.99978
0.99978
0.99978
0.99978
0.99978
0.99978
0.99979
0.99979
0.99979
0.99979
0.99979
0.99979
0.99979
0.99979
0.99979
0.99979
0.99979
0.99979
0.9998
0.9998
0.9998
0.9998
0.9998
0.9998
0.9998
0.9998
0.9998
0.9998
0.9998
0.9998
0.99979
0.99979
0.99979
0.99979
0.99979
0.99979
0.99979
0.99979
0.99979
0.99978
0.99978
0.99978
0.99978
0.99977
0.99977
0.99977
0.99977
0.99976
0.99976
0.99976
0.99975
0.99975
0.99975
0.99974
0.99974
0.99973
0.99973
0.99972
0.99972
0.99971
0.99971
0.9997
0.9997
0.99969
0.99969
0.99968
0.99968
0.99967
0.99966
0.99966
0.99965
0.99965
0.99964
0.99963
0.99963
0.99962
0.99961
0.9996
0.99959
0.99958
0.99956
0.99955
0.99953
0.99952
0.99951
0.99949
0.99948
0.99947
0.99946
0.99947
0.99949
0.99952
0.99955
0.99956
0.99956
0.99958
0.99963
0.99967
0.99969
0.99971
0.99971
0.9997
0.99968
0.99967
0.9995
0.99905
0.99772
0.99332
0.97652
0.91378
0.66195
0.12269
0.024888
0.0085598
0.0044155
0.0024866
0.0015259
0.0010158
0.00072729
0.00066491
0.00076912
0.00099155
0.0012693
0.0014957
0.0015483
0.0015193
0.0014655
0.0014116
0.0013777
0.0013581
0.0013469
0.0013346
0.0013204
0.0012971
0.0012756
0.0012601
0.0012481
0.0012383
0.0012301
0.0012198
0.0012064
0.0011933
0.0011787
0.0011536
0.0011189
0.0011012
0.0011755
0.0014603
0.0012213
0.00067304
0.00030097
0.00016564
0.00012335
0.00015901
0.00021174
0.00022593
0.00021992
0.00021086
0.00020472
0.00020114
0.00019869
0.00019655
0.00019443
0.00019235
0.00019032
0.00018834
0.00018643
0.00018456
0.00018273
0.00018094
0.00017919
0.00017748
0.00017581
0.00017417
0.00017256
0.00017097
0.00016942
0.0001679
0.00016641
0.00016494
0.00016351
0.0001621
0.00016072
0.00015937
0.00015806
0.00015678
0.00015553
0.00015431
0.00015314
0.00015199
0.00015089
0.00014983
0.00014881
0.00014782
0.00014688
0.00014599
0.00014513
0.00014432
0.00014356
0.00014283
0.00014215
0.00014151
0.00014092
0.00014036
0.00013985
0.00013937
0.00013894
0.00013853
0.00013817
0.00013783
0.00013753
0.00013726
0.00013702
0.0001368
0.0001366
0.00013643
0.00013628
0.00013616
0.00013604
0.00013595
0.00013587
0.00013581
0.00013576
0.00013575
0.00013572
0.00013557
0.0001352
0.00013511
0.00013654
0.00014042
0.00014209
0.00012362
0.00010746
0.00011936
0.00013509
0.00017489
1
1
1
1
1
1
1
1
1
1
1
1
1
1
1
1
1
0.99999
0.99999
0.99999
0.99999
0.99999
0.99999
0.99999
0.99998
0.99998
0.99998
0.99998
0.99998
0.99997
0.99997
0.99997
0.99997
0.99996
0.99996
0.99996
0.99995
0.99995
0.99995
0.99994
0.99994
0.99994
0.99993
0.99993
0.99993
0.99992
0.99992
0.99992
0.99991
0.99991
0.99991
0.9999
0.9999
0.9999
0.99989
0.99989
0.99989
0.99989
0.99989
0.99988
0.99988
0.99988
0.99988
0.99988
0.99988
0.99988
0.99988
0.99988
0.99988
0.99988
0.99988
0.99989
0.9999
0.9999
0.9999
0.9999
0.99989
0.99989
0.99988
0.99988
0.99986
0.99984
0.99982
0.9998
0.99977
0.99976
0.99973
0.99971
0.9997
0.99969
0.99969
0.99971
0.99972
0.99973
0.99974
0.99975
0.99976
0.99976
0.99976
0.99976
0.99976
0.99975
0.99975
0.99975
0.99975
0.99975
0.99975
0.99975
0.99975
0.99975
0.99975
0.99975
0.99975
0.99975
0.99975
0.99975
0.99975
0.99975
0.99975
0.99975
0.99975
0.99975
0.99975
0.99975
0.99975
0.99975
0.99974
0.99974
0.99974
0.99974
0.99974
0.99974
0.99974
0.99974
0.99974
0.99974
0.99974
0.99974
0.99974
0.99974
0.99974
0.99974
0.99974
0.99974
0.99974
0.99974
0.99974
0.99974
0.99974
0.99974
0.99974
0.99974
0.99974
0.99975
0.99975
0.99975
0.99975
0.99975
0.99975
0.99975
0.99975
0.99975
0.99976
0.99976
0.99976
0.99976
0.99976
0.99976
0.99976
0.99977
0.99977
0.99977
0.99977
0.99977
0.99977
0.99977
0.99977
0.99977
0.99977
0.99977
0.99978
0.99978
0.99978
0.99978
0.99978
0.99978
0.99978
0.99978
0.99978
0.99978
0.99978
0.99978
0.99978
0.99978
0.99978
0.99978
0.99978
0.99977
0.99977
0.99977
0.99977
0.99977
0.99977
0.99977
0.99977
0.99976
0.99976
0.99976
0.99976
0.99975
0.99975
0.99975
0.99974
0.99974
0.99974
0.99973
0.99973
0.99972
0.99972
0.99972
0.99971
0.9997
0.9997
0.99969
0.99969
0.99968
0.99967
0.99967
0.99966
0.99965
0.99964
0.99964
0.99963
0.99962
0.99961
0.9996
0.9996
0.99959
0.99958
0.99957
0.99956
0.99954
0.99953
0.99952
0.9995
0.99949
0.99948
0.99946
0.99945
0.99944
0.99944
0.99943
0.99943
0.99943
0.99945
0.99947
0.9995
0.99954
0.99958
0.99963
0.99967
0.9997
0.99972
0.99973
0.99973
0.99973
0.99976
0.9998
0.99979
0.99973
0.99953
0.999
0.99741
0.99184
0.97023
0.87798
0.55659
0.097087
0.01926
0.0045738
0.0014587
0.00055659
0.00034851
0.00035064
0.00049732
0.0007973
0.0011448
0.0013906
0.0014922
0.001507
0.001477
0.0014354
0.0014059
0.0013823
0.0013654
0.0013489
0.001332
0.0013073
0.0012866
0.0012714
0.0012599
0.0012516
0.0012414
0.001229
0.0012142
0.0012014
0.001188
0.0011629
0.0011278
0.0011149
0.0012068
0.0015362
0.0010716
0.00055799
0.0002471
0.000146
0.00011904
0.00018107
0.0002256
0.00023198
0.00022281
0.0002132
0.00020709
0.00020325
0.00020031
0.00019768
0.00019525
0.00019298
0.00019085
0.00018881
0.00018684
0.00018491
0.00018302
0.00018118
0.00017937
0.00017761
0.00017588
0.00017418
0.00017252
0.00017089
0.0001693
0.00016774
0.0001662
0.0001647
0.00016323
0.00016178
0.00016037
0.00015899
0.00015765
0.00015633
0.00015505
0.00015381
0.0001526
0.00015143
0.0001503
0.00014921
0.00014815
0.00014714
0.00014617
0.00014525
0.00014436
0.00014352
0.00014272
0.00014197
0.00014126
0.00014059
0.00013996
0.00013937
0.00013882
0.00013832
0.00013784
0.00013741
0.00013701
0.00013664
0.00013631
0.000136
0.00013573
0.00013548
0.00013526
0.00013506
0.00013488
0.00013473
0.00013459
0.00013448
0.00013438
0.00013429
0.00013423
0.0001342
0.00013416
0.00013401
0.00013362
0.00013352
0.00013493
0.00013878
0.00014042
0.00012215
0.00010617
0.00011793
0.0001335
0.00017285
0.99999
1
1
1
1
1
1
1
1
1
1
1
1
1
0.99999
0.99999
0.99999
0.99999
0.99999
0.99999
0.99999
0.99999
0.99999
0.99998
0.99998
0.99998
0.99998
0.99998
0.99997
0.99997
0.99997
0.99997
0.99996
0.99996
0.99996
0.99995
0.99995
0.99995
0.99994
0.99994
0.99993
0.99993
0.99993
0.99992
0.99992
0.99991
0.99991
0.99991
0.9999
0.9999
0.9999
0.99989
0.99989
0.99989
0.99988
0.99988
0.99988
0.99987
0.99987
0.99987
0.99987
0.99987
0.99987
0.99987
0.99987
0.99987
0.99987
0.99987
0.99988
0.99989
0.99989
0.99989
0.99989
0.99988
0.99987
0.99986
0.99985
0.99984
0.99983
0.99981
0.99978
0.99974
0.99974
0.99971
0.99968
0.99968
0.99967
0.99968
0.9997
0.99971
0.99972
0.99973
0.99973
0.99974
0.99974
0.99974
0.99974
0.99974
0.99974
0.99974
0.99974
0.99974
0.99974
0.99974
0.99974
0.99974
0.99974
0.99974
0.99974
0.99974
0.99974
0.99974
0.99974
0.99974
0.99974
0.99974
0.99974
0.99974
0.99974
0.99974
0.99974
0.99974
0.99974
0.99973
0.99973
0.99973
0.99973
0.99973
0.99973
0.99973
0.99973
0.99973
0.99973
0.99973
0.99973
0.99973
0.99973
0.99973
0.99973
0.99973
0.99973
0.99973
0.99973
0.99973
0.99973
0.99973
0.99973
0.99973
0.99973
0.99973
0.99973
0.99973
0.99973
0.99973
0.99973
0.99973
0.99973
0.99973
0.99974
0.99974
0.99974
0.99974
0.99974
0.99974
0.99974
0.99974
0.99974
0.99974
0.99975
0.99975
0.99975
0.99975
0.99975
0.99975
0.99975
0.99975
0.99975
0.99976
0.99976
0.99976
0.99976
0.99976
0.99976
0.99976
0.99976
0.99976
0.99976
0.99976
0.99976
0.99976
0.99976
0.99976
0.99976
0.99976
0.99976
0.99976
0.99976
0.99976
0.99976
0.99976
0.99976
0.99975
0.99975
0.99975
0.99975
0.99975
0.99975
0.99974
0.99974
0.99974
0.99974
0.99973
0.99973
0.99973
0.99972
0.99972
0.99972
0.99971
0.99971
0.9997
0.99969
0.99969
0.99968
0.99967
0.99967
0.99966
0.99965
0.99964
0.99963
0.99962
0.99961
0.9996
0.99959
0.99958
0.99957
0.99956
0.99955
0.99954
0.99953
0.99952
0.9995
0.99949
0.99948
0.99946
0.99945
0.99943
0.99942
0.99941
0.9994
0.9994
0.9994
0.9994
0.9994
0.99941
0.99942
0.99943
0.99945
0.99948
0.9995
0.99953
0.99956
0.99959
0.99964
0.99969
0.99971
0.99973
0.99976
0.99981
0.99984
0.99983
0.99977
0.99961
0.99916
0.99826
0.99572
0.98496
0.94465
0.79802
0.3035
0.03619
0.0053373
0.0011666
0.0004422
0.00032133
0.00036035
0.00050881
0.0006895
0.00092725
0.0011423
0.0013066
0.001391
0.0014146
0.0014092
0.0013907
0.0013714
0.0013507
0.0013304
0.0013064
0.0012866
0.0012716
0.00126
0.0012496
0.0012369
0.0012233
0.0012088
0.0011978
0.0011865
0.0011624
0.0011284
0.0011175
0.0012078
0.0015294
0.0010564
0.00054114
0.00023411
0.00013516
0.00010858
0.00016526
0.00020971
0.00022145
0.00021803
0.00021202
0.00020732
0.00020345
0.00019984
0.00019645
0.00019341
0.00019074
0.00018838
0.00018622
0.00018419
0.00018223
0.00018033
0.00017846
0.00017663
0.00017484
0.00017309
0.00017138
0.0001697
0.00016805
0.00016644
0.00016486
0.00016332
0.0001618
0.00016032
0.00015887
0.00015745
0.00015606
0.00015471
0.00015339
0.0001521
0.00015085
0.00014963
0.00014845
0.00014731
0.00014621
0.00014515
0.00014413
0.00014315
0.00014221
0.00014131
0.00014045
0.00013964
0.00013886
0.00013813
0.00013744
0.00013679
0.00013618
0.00013561
0.00013508
0.00013458
0.00013412
0.00013369
0.0001333
0.00013294
0.00013261
0.0001323
0.00013203
0.00013178
0.00013155
0.00013135
0.00013117
0.00013102
0.00013088
0.00013076
0.00013066
0.00013058
0.00013053
0.00013048
0.00013032
0.00012993
0.00012982
0.00013119
0.00013493
0.00013654
0.00011872
0.00010313
0.00011461
0.00012981
0.00016823
0.99999
0.99999
1
1
1
1
1
1
1
1
0.99999
0.99999
0.99999
0.99999
0.99999
0.99999
0.99999
0.99999
0.99999
0.99999
0.99999
0.99998
0.99998
0.99998
0.99998
0.99998
0.99997
0.99997
0.99997
0.99997
0.99996
0.99996
0.99996
0.99995
0.99995
0.99995
0.99994
0.99994
0.99994
0.99993
0.99993
0.99992
0.99992
0.99991
0.99991
0.9999
0.9999
0.9999
0.99989
0.99989
0.99988
0.99988
0.99987
0.99987
0.99987
0.99986
0.99986
0.99986
0.99986
0.99985
0.99985
0.99985
0.99986
0.99986
0.99987
0.99987
0.99988
0.99988
0.99987
0.99987
0.99986
0.99985
0.99984
0.99983
0.9998
0.99978
0.99976
0.99974
0.99973
0.99971
0.99968
0.99965
0.99964
0.99964
0.99965
0.99967
0.99969
0.9997
0.99971
0.99971
0.99972
0.99972
0.99972
0.99972
0.99972
0.99972
0.99972
0.99972
0.99971
0.99971
0.99971
0.99971
0.99971
0.99971
0.99971
0.99972
0.99972
0.99972
0.99972
0.99972
0.99972
0.99972
0.99972
0.99972
0.99972
0.99972
0.99972
0.99972
0.99972
0.99972
0.99972
0.99972
0.99972
0.99972
0.99972
0.99972
0.99972
0.99972
0.99972
0.99972
0.99972
0.99972
0.99972
0.99972
0.99972
0.99972
0.99972
0.99972
0.99972
0.99972
0.99972
0.99971
0.99971
0.99971
0.99971
0.99971
0.99971
0.99971
0.99971
0.99971
0.99971
0.99971
0.99971
0.99971
0.99971
0.99971
0.99971
0.99971
0.99971
0.99971
0.99972
0.99972
0.99972
0.99972
0.99972
0.99972
0.99972
0.99972
0.99972
0.99972
0.99972
0.99972
0.99973
0.99973
0.99973
0.99973
0.99973
0.99973
0.99973
0.99973
0.99973
0.99973
0.99973
0.99974
0.99974
0.99974
0.99974
0.99974
0.99974
0.99974
0.99974
0.99974
0.99974
0.99974
0.99974
0.99974
0.99974
0.99974
0.99974
0.99974
0.99973
0.99973
0.99973
0.99973
0.99973
0.99973
0.99973
0.99972
0.99972
0.99972
0.99972
0.99971
0.99971
0.99971
0.9997
0.9997
0.9997
0.99969
0.99969
0.99968
0.99967
0.99967
0.99966
0.99965
0.99964
0.99963
0.99962
0.99961
0.9996
0.99959
0.99958
0.99956
0.99955
0.99954
0.99952
0.99951
0.9995
0.99948
0.99947
0.99945
0.99944
0.99942
0.99941
0.99939
0.99938
0.99936
0.99935
0.99934
0.99934
0.99933
0.99934
0.99934
0.99935
0.99936
0.99937