/*--------------------------------*- C++ -*----------------------------------*\
| =========                 |                                                 |
| \\      /  F ield         | OpenFOAM: The Open Source CFD Toolbox           |
|  \\    /   O peration     | Version:  5.x                                   |
|   \\  /    A nd           | Web:      www.OpenFOAM.org                      |
|    \\/     M anipulation  |                                                 |
\*---------------------------------------------------------------------------*/
FoamFile
{
    version     2.0;
    format      ascii;
    class       volSymmTensorField;
    location    "40";
    object      sigmaD;
}
// * * * * * * * * * * * * * * * * * * * * * * * * * * * * * * * * * * * * * //

dimensions      [0 2 -2 0 0 0 0];

internalField   nonuniform List<symmTensor> 
80000
(
(53267 3898.9 0 2872.4 0 12955)
(40428 1587.8 0 183.47 0 9371.9)
(36052 812.2 0 -72.357 0 8302.9)
(33589 544.25 0 -15.219 0 7747.7)
(31841 425.61 0 21.886 0 7353)
(30451 354.75 0 30.375 0 7034.2)
(29285 305.16 0 28.785 0 6764.7)
(28275 268.57 0 25.538 0 6530.8)
(27379 241 0 22.838 0 6323.5)
(26569 219.83 0 20.87 0 6136.1)
(25825 203.18 0 19.406 0 5964)
(25133 189.77 0 18.234 0 5804.1)
(24484 178.65 0 17.217 0 5654)
(23870 169.2 0 16.278 0 5512.2)
(23287 160.95 0 15.377 0 5377.4)
(22731 153.58 0 14.496 0 5248.9)
(22199 146.86 0 13.628 0 5126)
(21690 140.63 0 12.772 0 5008.4)
(21202 134.76 0 11.932 0 4895.6)
(20735 129.15 0 11.112 0 4787.5)
(20286 123.76 0 10.317 0 4683.9)
(19857 118.51 0 9.553 0 4584.6)
(19446 113.38 0 8.8245 0 4489.5)
(19053 108.34 0 8.1363 0 4398.7)
(18678 103.36 0 7.4923 0 4311.9)
(18320 98.429 0 6.8962 0 4229.3)
(17980 93.532 0 6.3511 0 4150.7)
(17657 88.662 0 5.8599 0 4076.1)
(17352 83.813 0 5.4254 0 4005.6)
(17064 78.981 0 5.0497 0 3939)
(16793 74.164 0 4.7349 0 3876.5)
(16540 69.364 0 4.4828 0 3818)
(16304 64.581 0 4.2949 0 3763.4)
(16085 59.819 0 4.1725 0 3712.8)
(15883 55.085 0 4.1168 0 3666.2)
(15698 50.385 0 4.1283 0 3623.5)
(15530 45.73 0 4.2075 0 3584.7)
(15378 41.132 0 4.3543 0 3549.8)
(15243 36.606 0 4.5679 0 3518.6)
(15124 32.172 0 4.8469 0 3491.2)
(15021 27.852 0 5.1893 0 3467.5)
(14933 23.673 0 5.5919 0 3447.3)
(14860 19.665 0 6.0506 0 3430.6)
(14801 15.864 0 6.5599 0 3417.1)
(14755 12.309 0 7.1132 0 3406.7)
(14722 9.0425 0 7.7026 0 3399.1)
(14699 6.109 0 8.3186 0 3394.1)
(14687 3.5545 0 8.951 0 3391.4)
(14683 1.4234 0 9.5883 0 3390.6)
(14686 -0.2436 0 10.219 0 3391.4)
(14694 -1.4129 0 10.83 0 3393.3)
(14704 -2.0613 0 11.41 0 3395.9)
(14716 -2.1791 0 11.949 0 3398.8)
(14727 -1.773 0 12.436 0 3401.5)
(14736 -0.86886 0 12.864 0 3403.5)
(14740 0.48829 0 13.226 0 3404.5)
(14737 2.2342 0 13.518 0 3404)
(14728 4.2883 0 13.736 0 3401.9)
(14710 6.5576 0 13.88 0 3397.8)
(14683 8.9423 0 13.948 0 3391.7)
(14647 11.343 0 13.941 0 3383.4)
(14602 13.665 0 13.861 0 3373)
(14549 15.829 0 13.708 0 3360.7)
(14488 17.77 0 13.487 0 3346.5)
(14420 19.446 0 13.2 0 3330.8)
(14347 20.832 0 12.855 0 3313.7)
(14268 21.925 0 12.456 0 3295.6)
(14187 22.737 0 12.013 0 3276.6)
(14102 23.292 0 11.533 0 3257.1)
(14017 23.625 0 11.027 0 3237.1)
(13930 23.77 0 10.502 0 3217)
(13843 23.765 0 9.9684 0 3196.9)
(13757 23.644 0 9.4316 0 3176.8)
(13671 23.439 0 8.8981 0 3156.8)
(13586 23.176 0 8.3721 0 3137.1)
(13502 22.878 0 7.8565 0 3117.6)
(13419 22.561 0 7.3532 0 3098.5)
(13338 22.24 0 6.8631 0 3079.6)
(13258 21.924 0 6.3864 0 3060.9)
(13179 21.622 0 5.9231 0 3042.6)
(13101 21.337 0 5.4722 0 3024.5)
(13024 21.075 0 5.0325 0 3006.6)
(12948 20.837 0 4.6026 0 2989)
(12873 20.624 0 4.1816 0 2971.6)
(12798 20.438 0 3.7672 0 2954.3)
(12724 20.278 0 3.3584 0 2937.2)
(12651 20.144 0 2.9559 0 2920.2)
(12578 20.034 0 2.5586 0 2903.3)
(12506 19.946 0 2.1643 0 2886.5)
(12434 19.875 0 1.7716 0 2869.8)
(12362 19.82 0 1.3794 0 2853.1)
(12290 19.784 0 0.984 0 2836.5)
(12219 19.764 0 0.58822 0 2819.9)
(12147 19.755 0 0.19871 0 2803.3)
(12076 19.751 0 -0.1909 0 2786.7)
(12004 19.745 0 -0.58321 0 2770.1)
(11933 19.729 0 -0.96857 0 2753.5)
(11861 19.701 0 -1.355 0 2736.9)
(11790 19.661 0 -1.7475 0 2720.4)
(11719 19.6 0 -2.1276 0 2703.9)
(11648 19.502 0 -2.4925 0 2687.4)
(11577 19.343 0 -2.8521 0 2671)
(11507 19.111 0 -3.2034 0 2654.8)
(11438 18.806 0 -3.5554 0 2638.8)
(11371 18.442 0 -3.9148 0 2623.2)
(11305 18.023 0 -4.2589 0 2607.8)
(11240 17.526 0 -4.5775 0 2592.8)
(11178 16.941 0 -4.8764 0 2578.3)
(11117 16.264 0 -5.1539 0 2564.4)
(11060 15.498 0 -5.407 0 2551)
(11005 14.648 0 -5.6335 0 2538.4)
(10954 13.724 0 -5.8324 0 2526.5)
(10907 12.742 0 -6.0037 0 2515.5)
(10863 11.723 0 -6.1478 0 2505.3)
(10823 10.693 0 -6.2655 0 2496.1)
(10786 9.6813 0 -6.3582 0 2487.7)
(10754 8.7166 0 -6.4276 0 2480.1)
(10725 7.8277 0 -6.4753 0 2473.4)
(10699 7.0389 0 -6.5032 0 2467.4)
(10675 6.3685 0 -6.513 0 2462)
(10654 5.8268 0 -6.5065 0 2457.2)
(10635 5.4151 0 -6.4851 0 2452.7)
(10617 5.1252 0 -6.4505 0 2448.6)
(10600 4.9404 0 -6.404 0 2444.6)
(10583 4.8372 0 -6.3472 0 2440.8)
(10567 4.7868 0 -6.2816 0 2437)
(10550 4.7586 0 -6.2084 0 2433.2)
(10534 4.7223 0 -6.129 0 2429.5)
(10518 4.6509 0 -6.0445 0 2425.7)
(10502 4.5226 0 -5.9557 0 2422.1)
(10486 4.3223 0 -5.8633 0 2418.6)
(10472 4.0428 0 -5.7673 0 2415.3)
(10459 3.684 0 -5.6677 0 2412.2)
(10447 3.2523 0 -5.5639 0 2409.5)
(10437 2.7594 0 -5.4548 0 2407.2)
(10428 2.2198 0 -5.3392 0 2405.3)
(10422 1.6489 0 -5.2153 0 2403.9)
(10418 1.061 0 -5.0814 0 2403)
(10416 0.46737 0 -4.9356 0 2402.6)
(10416 -0.12484 0 -4.7761 0 2402.7)
(10419 -0.71318 0 -4.6012 0 2403.3)
(10423 -1.2998 0 -4.4097 0 2404.4)
(10430 -1.8906 0 -4.2007 0 2406)
(10439 -2.4944 0 -3.9735 0 2408.1)
(10450 -3.121 0 -3.7278 0 2410.7)
(10463 -3.7804 0 -3.4634 0 2413.8)
(10479 -4.4808 0 -3.1804 0 2417.6)
(10498 -5.228 0 -2.8786 0 2421.9)
(10519 -6.0244 0 -2.5579 0 2426.9)
(10543 -6.8689 0 -2.2181 0 2432.6)
(10571 -7.7564 0 -1.8591 0 2439)
(10602 -8.6782 0 -1.4807 0 2446.2)
(10636 -9.622 0 -1.0829 0 2454.2)
(10674 -10.572 0 -0.66651 0 2463)
(10715 -11.51 0 -0.23266 0 2472.6)
(10759 -12.413 0 0.21654 0 2483)
(10807 -13.258 0 0.67795 0 2494.1)
(10858 -14.015 0 1.1473 0 2505.9)
(10911 -14.657 0 1.6192 0 2518.3)
(10967 -15.151 0 2.087 0 2531.2)
(11023 -15.467 0 2.5432 0 2544.4)
(11081 -15.572 0 2.9793 0 2557.8)
(11138 -15.44 0 3.3867 0 2571.1)
(11195 -15.049 0 3.7567 0 2584.2)
(11249 -14.388 0 4.0813 0 2596.8)
(11300 -13.454 0 4.3538 0 2608.7)
(11347 -12.264 0 4.5692 0 2619.6)
(11389 -10.849 0 4.725 0 2629.3)
(11425 -9.2606 0 4.8213 0 2637.7)
(11455 -7.5686 0 4.8608 0 2644.6)
(11479 -5.8592 0 4.8487 0 2650)
(11495 -4.2301 0 4.7924 0 2653.9)
(11506 -2.7844 0 4.7005 0 2656.4)
(11512 -1.6225 0 4.5825 0 2657.8)
(11515 -0.83276 0 4.4475 0 2658.3)
(11515 -0.48289 0 4.3047 0 2658.2)
(11514 -0.61287 0 4.1621 0 2658.1)
(11515 -1.23 0 4.0274 0 2658.2)
(11519 -2.3076 0 3.9077 0 2659.2)
(11528 -3.787 0 3.8098 0 2661.2)
(11543 -5.5834 0 3.7407 0 2664.7)
(11566 -7.5942 0 3.7078 0 2669.8)
(11596 -9.7086 0 3.718 0 2676.8)
(11634 -11.818 0 3.7784 0 2685.7)
(11680 -13.825 0 3.8951 0 2696.3)
(11734 -15.651 0 4.0726 0 2708.7)
(11793 -17.238 0 4.3135 0 2722.6)
(11859 -18.551 0 4.6175 0 2737.7)
(11929 -19.575 0 4.9811 0 2753.9)
(12002 -20.309 0 5.3971 0 2770.8)
(12077 -20.76 0 5.8551 0 2788.3)
(12154 -20.935 0 6.3412 0 2806.1)
(12230 -20.838 0 6.8395 0 2823.9)
(12306 -20.463 0 7.3329 0 2841.6)
(12380 -19.796 0 7.8051 0 2858.8)
(12451 -18.821 0 8.2414 0 2875.3)
(12518 -17.521 0 8.6307 0 2890.8)
(12580 -15.89 0 8.9655 0 2905.1)
(12634 -13.94 0 9.2425 0 2917.8)
(12681 -11.707 0 9.4619 0 2928.7)
(12720 -9.2496 0 9.626 0 2937.5)
(12749 -6.6539 0 9.7382 0 2944.2)
(12768 -4.0221 0 9.8014 0 2948.6)
(12777 -1.4651 0 9.8177 0 2950.8)
(12777 0.90832 0 9.7881 0 2950.8)
(12768 3.0017 0 9.713 0 2948.8)
(12753 4.7385 0 9.5938 0 2945.2)
(12732 6.0667 0 9.4334 0 2940.3)
(12706 6.9587 0 9.2376 0 2934.4)
(12679 7.4088 0 9.0156 0 2927.9)
(12650 7.4273 0 8.7798 0 2921.3)
(12622 7.0345 0 8.5451 0 2914.8)
(12597 6.2542 0 8.3286 0 2908.8)
(12575 5.109 0 8.1479 0 2903.7)
(12558 3.6176 0 8.021 0 2899.8)
(12547 1.7934 0 7.9647 0 2897.3)
(12543 -0.35358 0 7.995 0 2896.5)
(12549 -2.8142 0 8.1258 0 2897.8)
(12564 -5.5761 0 8.3692 0 2901.3)
(12590 -8.6194 0 8.735 0 2907.4)
(12628 -11.911 0 9.2303 0 2916.3)
(12679 -15.403 0 9.8596 0 2928.2)
(12743 -19.026 0 10.624 0 2943.2)
(12821 -22.689 0 11.522 0 2961.4)
(12913 -26.284 0 12.547 0 2982.8)
(13018 -29.681 0 13.691 0 3007.4)
(13136 -32.737 0 14.943 0 3034.8)
(13264 -35.305 0 16.289 0 3064.7)
(13401 -37.236 0 17.711 0 3096.7)
(13545 -38.395 0 19.191 0 3130.2)
(13691 -38.664 0 20.711 0 3164.3)
(13837 -37.957 0 22.252 0 3198.3)
(13979 -36.22 0 23.792 0 3231.4)
(14113 -33.441 0 25.313 0 3262.6)
(14234 -29.644 0 26.793 0 3291)
(14340 -24.893 0 28.213 0 3315.8)
(14428 -19.28 0 29.552 0 3336.3)
(14493 -12.917 0 30.79 0 3351.6)
(14534 -5.9315 0 31.906 0 3361.2)
(14548 1.5509 0 32.881 0 3364.7)
(14534 9.4113 0 33.698 0 3361.7)
(14490 17.547 0 34.34 0 3351.8)
(14417 25.876 0 34.794 0 3334.9)
(14312 34.341 0 35.047 0 3310.9)
(14177 42.912 0 35.089 0 3279.7)
(14010 51.583 0 34.908 0 3241.1)
(13811 60.372 0 34.496 0 3195.2)
(13580 69.315 0 33.84 0 3141.7)
(13316 78.465 0 32.929 0 3080.6)
(13018 87.889 0 31.749 0 3011.5)
(12685 97.673 0 30.269 0 2934.3)
(12315 107.94 0 28.447 0 2848.6)
(11907 118.83 0 26.243 0 2753.9)
(11458 130.45 0 23.629 0 2649.5)
(10962 142.87 0 20.532 0 2534.5)
(10419 156.21 0 16.769 0 2408.2)
(9821.4 170.72 0 12.002 0 2269.2)
(9166.8 187 0 5.7213 0 2116.7)
(8445 205.99 0 -2.5712 0 1948.3)
(7641 228.74 0 -13.149 0 1760.3)
(6733.6 256.61 0 -25.569 0 1548)
(5696.8 292.12 0 -37.661 0 1305.9)
(4506 337.39 0 -43.689 0 1029.8)
(3093.6 361.08 0 -33.604 0 706.16)
(1251.4 204.36 0 -7.7625 0 287)
(22.364 2.8261 0 0.72863 0 5.329)
(0.17905 0.011251 0 0.0049494 0 0.042462)
(0.002644 0.00012852 0 4.4813e-05 0 0.00062051)
(0.00018433 5.7881e-06 0 2.6154e-06 0 4.3142e-05)
(0.00010063 2.8003e-06 0 5.7604e-07 0 2.3355e-05)
(0.00010459 2.6736e-06 0 1.1913e-06 0 2.4411e-05)
(9.9411e-05 1.1446e-07 0 7.2737e-07 0 2.3109e-05)
(0.00010167 7.2686e-07 0 3.5193e-07 0 2.3543e-05)
(0.00010236 -4.4262e-08 0 -1.7446e-07 0 2.3581e-05)
(0.00010521 5.3765e-08 0 -3.6563e-07 0 2.4195e-05)
(0.00010406 1.6174e-07 0 -3.7715e-07 0 2.3927e-05)
(0.00010034 -3.5496e-08 0 1.972e-07 0 2.3201e-05)
(9.5109e-05 -2.9751e-07 0 8.4091e-07 0 2.2142e-05)
(8.6305e-05 -4.4762e-07 0 1.1779e-06 0 2.0188e-05)
(7.9952e-05 -2.4608e-06 0 1.3689e-06 0 1.8766e-05)
(0.00010661 -5.2332e-06 0 -1.6943e-06 0 2.421e-05)
(0.00012183 -7.0396e-06 0 -3.9627e-06 0 2.72e-05)
(0.00015397 -6.9889e-06 0 -2.6291e-06 0 3.4924e-05)
(0.00020027 -2.5809e-07 0 -3.6203e-06 0 4.538e-05)
(0.00017452 5.736e-06 0 -5.2888e-06 0 3.9054e-05)
(0.00015127 7.6199e-06 0 -3.9198e-06 0 3.4003e-05)
(0.00011173 5.5954e-06 0 -1.4737e-06 0 2.5444e-05)
(0.00011387 3.2032e-06 0 -2.319e-07 0 2.6223e-05)
(0.00011154 1.5028e-06 0 -3.1163e-08 0 2.5733e-05)
(0.00011893 1.0061e-06 0 -2.6226e-07 0 2.7386e-05)
(0.0001137 1.0634e-06 0 -2.7849e-07 0 2.6174e-05)
(0.00010822 1.1214e-06 0 -8.1348e-08 0 2.4954e-05)
(0.0001039 1.0536e-06 0 -4.2958e-09 0 2.3975e-05)
(0.00010042 9.168e-07 0 -1.4682e-08 0 2.3171e-05)
(9.7362e-05 7.5438e-07 0 -4.234e-08 0 2.2458e-05)
(9.5032e-05 5.9451e-07 0 -6.8156e-08 0 2.1915e-05)
(9.3333e-05 4.5811e-07 0 -9.0269e-08 0 2.1518e-05)
(9.197e-05 3.4684e-07 0 -1.0789e-07 0 2.1199e-05)
(9.1126e-05 2.6747e-07 0 -1.2187e-07 0 2.1001e-05)
(9.031e-05 2.1579e-07 0 -1.2878e-07 0 2.0811e-05)
(8.967e-05 1.743e-07 0 -1.2781e-07 0 2.0664e-05)
(8.9129e-05 1.3462e-07 0 -1.2081e-07 0 2.054e-05)
(8.8696e-05 9.1035e-08 0 -1.0969e-07 0 2.0443e-05)
(8.8488e-05 4.2629e-08 0 -9.8659e-08 0 2.0398e-05)
(8.8473e-05 -7.4035e-09 0 -8.7217e-08 0 2.0397e-05)
(8.8608e-05 -5.9493e-08 0 -7.5101e-08 0 2.0431e-05)
(8.9046e-05 -1.088e-07 0 -6.4005e-08 0 2.0534e-05)
(8.97e-05 -1.4708e-07 0 -4.9405e-08 0 2.0689e-05)
(9.0371e-05 -1.7598e-07 0 -2.5498e-08 0 2.0849e-05)
(9.1038e-05 -2.034e-07 0 9.2947e-09 0 2.1011e-05)
(9.1451e-05 -2.5099e-07 0 6.5044e-08 0 2.1119e-05)
(9.1546e-05 -3.7536e-07 0 1.4649e-07 0 2.116e-05)
(9.0948e-05 -7.3815e-07 0 8.4219e-08 0 2.1007e-05)
(9.7874e-05 -1.0217e-06 0 -5.2251e-07 0 2.2466e-05)
(0.0001197 3.8117e-07 0 -1.1998e-06 0 2.7345e-05)
(9.2544e-05 1.6386e-06 0 -3.0241e-07 0 2.1287e-05)
(8.5871e-05 1.1986e-06 0 2.2003e-07 0 1.9867e-05)
(8.5951e-05 6.0414e-07 0 2.1032e-07 0 1.9883e-05)
(8.5319e-05 2.9682e-07 0 9.6439e-08 0 1.9711e-05)
(8.4434e-05 1.761e-07 0 5.2747e-08 0 1.9497e-05)
(8.3885e-05 1.2802e-07 0 3.8026e-08 0 1.9367e-05)
(8.3425e-05 1.0746e-07 0 2.8241e-08 0 1.9258e-05)
(8.3032e-05 9.7607e-08 0 2.1746e-08 0 1.9166e-05)
(8.2685e-05 9.331e-08 0 1.7373e-08 0 1.9085e-05)
(8.2356e-05 9.3179e-08 0 1.4633e-08 0 1.9009e-05)
(8.2026e-05 9.6468e-08 0 1.3235e-08 0 1.8932e-05)
(8.1682e-05 1.0246e-07 0 1.2819e-08 0 1.8853e-05)
(8.1314e-05 1.1053e-07 0 1.3035e-08 0 1.8768e-05)
(8.0916e-05 1.2024e-07 0 1.3623e-08 0 1.8676e-05)
(8.0482e-05 1.313e-07 0 1.4421e-08 0 1.8576e-05)
(8.0008e-05 1.4352e-07 0 1.5331e-08 0 1.8467e-05)
(7.9489e-05 1.5676e-07 0 1.6286e-08 0 1.8347e-05)
(7.8921e-05 1.7093e-07 0 1.7238e-08 0 1.8217e-05)
(7.8302e-05 1.8592e-07 0 1.8151e-08 0 1.8074e-05)
(7.7629e-05 2.0167e-07 0 1.8995e-08 0 1.7919e-05)
(7.6898e-05 2.1809e-07 0 1.9746e-08 0 1.775e-05)
(7.6108e-05 2.3511e-07 0 2.0383e-08 0 1.7568e-05)
(7.5256e-05 2.5264e-07 0 2.0886e-08 0 1.7372e-05)
(7.4341e-05 2.7057e-07 0 2.124e-08 0 1.7161e-05)
(7.3361e-05 2.8881e-07 0 2.1427e-08 0 1.6934e-05)
(7.2316e-05 3.0727e-07 0 2.1434e-08 0 1.6693e-05)
(7.1204e-05 3.2584e-07 0 2.1248e-08 0 1.6437e-05)
(7.0026e-05 3.4443e-07 0 2.0858e-08 0 1.6165e-05)
(6.8781e-05 3.6292e-07 0 2.0256e-08 0 1.5877e-05)
(6.747e-05 3.8124e-07 0 1.9438e-08 0 1.5574e-05)
(6.6093e-05 3.9928e-07 0 1.8398e-08 0 1.5257e-05)
(6.4653e-05 4.1694e-07 0 1.7137e-08 0 1.4924e-05)
(6.315e-05 4.3414e-07 0 1.5653e-08 0 1.4577e-05)
(6.1586e-05 4.5079e-07 0 1.395e-08 0 1.4215e-05)
(5.9963e-05 4.6679e-07 0 1.2031e-08 0 1.384e-05)
(5.8284e-05 4.8206e-07 0 9.9006e-09 0 1.3452e-05)
(5.6551e-05 4.9651e-07 0 7.5663e-09 0 1.3052e-05)
(5.4768e-05 5.1006e-07 0 5.0357e-09 0 1.264e-05)
(5.2938e-05 5.2263e-07 0 2.3181e-09 0 1.2217e-05)
(5.1065e-05 5.3415e-07 0 -5.7585e-10 0 1.1784e-05)
(4.9152e-05 5.4453e-07 0 -3.6343e-09 0 1.1342e-05)
(4.7203e-05 5.5372e-07 0 -6.8441e-09 0 1.0891e-05)
(4.5224e-05 5.6165e-07 0 -1.0191e-08 0 1.0434e-05)
(4.3218e-05 5.6825e-07 0 -1.366e-08 0 9.9702e-06)
(4.119e-05 5.7346e-07 0 -1.7234e-08 0 9.5015e-06)
(3.9147e-05 5.7725e-07 0 -2.0895e-08 0 9.029e-06)
(3.7092e-05 5.7955e-07 0 -2.4626e-08 0 8.5539e-06)
(3.5031e-05 5.8032e-07 0 -2.8406e-08 0 8.0775e-06)
(3.297e-05 5.7954e-07 0 -3.2216e-08 0 7.601e-06)
(3.0915e-05 5.7716e-07 0 -3.6033e-08 0 7.1258e-06)
(2.887e-05 5.7316e-07 0 -3.9836e-08 0 6.6532e-06)
(2.6843e-05 5.6752e-07 0 -4.3602e-08 0 6.1845e-06)
(2.4839e-05 5.6022e-07 0 -4.7306e-08 0 5.7211e-06)
(2.2863e-05 5.5125e-07 0 -5.0924e-08 0 5.2644e-06)
(2.0923e-05 5.4061e-07 0 -5.4432e-08 0 4.8159e-06)
(1.9024e-05 5.2829e-07 0 -5.7801e-08 0 4.3768e-06)
(1.7172e-05 5.1432e-07 0 -6.1006e-08 0 3.9487e-06)
(1.5373e-05 4.9869e-07 0 -6.4018e-08 0 3.5329e-06)
(1.3633e-05 4.8143e-07 0 -6.6809e-08 0 3.1307e-06)
(1.1958e-05 4.6258e-07 0 -6.935e-08 0 2.7435e-06)
(1.0353e-05 4.4216e-07 0 -7.161e-08 0 2.3727e-06)
(8.8251e-06 4.2021e-07 0 -7.3558e-08 0 2.0196e-06)
(7.3785e-06 3.9679e-07 0 -7.5162e-08 0 1.6854e-06)
(6.0187e-06 3.7197e-07 0 -7.639e-08 0 1.3713e-06)
(4.7509e-06 3.4581e-07 0 -7.7209e-08 0 1.0786e-06)
(3.5798e-06 3.184e-07 0 -7.7583e-08 0 8.0821e-07)
(2.5099e-06 2.8984e-07 0 -7.748e-08 0 5.6133e-07)
(1.5452e-06 2.6026e-07 0 -7.6862e-08 0 3.3884e-07)
(6.8923e-07 2.2979e-07 0 -7.5697e-08 0 1.4159e-07)
(-5.4819e-08 1.9859e-07 0 -7.395e-08 0 -2.9716e-08)
(-6.8455e-07 1.6687e-07 0 -7.1588e-08 0 -1.7449e-07)
(-1.1983e-06 1.3487e-07 0 -6.8583e-08 0 -2.9235e-07)
(-1.5953e-06 1.0288e-07 0 -6.4911e-08 0 -3.8312e-07)
(-1.8759e-06 7.1236e-08 0 -6.0557e-08 0 -4.4687e-07)
(-2.0419e-06 4.0385e-08 0 -5.5524e-08 0 -4.8402e-07)
(-2.0969e-06 1.0865e-08 0 -4.9835e-08 0 -4.954e-07)
(-2.0466e-06 -1.6643e-08 0 -4.356e-08 0 -4.8235e-07)
(-1.8997e-06 -4.1266e-08 0 -3.6837e-08 0 -4.4689e-07)
(-1.6686e-06 -6.1881e-08 0 -2.9939e-08 0 -3.9197e-07)
(-1.3708e-06 -7.7021e-08 0 -2.3398e-08 0 -3.2173e-07)
(-1.03e-06 -8.4792e-08 0 -1.817e-08 0 -2.4188e-07)
(-6.7946e-07 -8.3084e-08 0 -1.5809e-08 0 -1.6045e-07)
(-3.6166e-07 -7.0213e-08 0 -1.8051e-08 0 -8.7625e-08)
(-1.2691e-07 -4.6951e-08 0 -2.3249e-08 0 -3.4652e-08)
(-1.1567e-08 -1.9814e-08 0 -1.1413e-08 0 -5.303e-09)
(36513 8981.9 0 5397.2 0 9671.6)
(37502 5872.4 0 1665 0 9038.5)
(35427 3939.8 0 619.11 0 8318.4)
(33289 2818.5 0 371.14 0 7767.6)
(31563 2186.5 0 283.57 0 7349.1)
(30173 1802.2 0 220.13 0 7013.8)
(29010 1544.1 0 167.3 0 6733.1)
(28002 1358.5 0 126.42 0 6491.3)
(27108 1219.5 0 96.569 0 6278)
(26300 1112.4 0 75.321 0 6086.6)
(25559 1027.8 0 60.269 0 5912.2)
(24873 959.33 0 49.556 0 5751.3)
(24231 902.46 0 41.868 0 5601.4)
(23626 854.03 0 36.302 0 5460.6)
(23054 811.79 0 32.236 0 5327.6)
(22510 774.13 0 29.243 0 5201.5)
(21992 739.86 0 27.023 0 5081.3)
(21497 708.14 0 25.369 0 4966.6)
(21023 678.34 0 24.13 0 4857)
(20569 649.98 0 23.2 0 4752.1)
(20135 622.71 0 22.501 0 4651.7)
(19719 596.28 0 21.978 0 4555.6)
(19321 570.47 0 21.587 0 4463.6)
(18940 545.14 0 21.297 0 4375.7)
(18577 520.17 0 21.083 0 4291.8)
(18230 495.47 0 20.925 0 4211.7)
(17900 470.97 0 20.808 0 4135.5)
(17586 446.63 0 20.72 0 4063.2)
(17289 422.42 0 20.65 0 3994.6)
(17008 398.31 0 20.591 0 3929.7)
(16743 374.3 0 20.533 0 3868.6)
(16495 350.38 0 20.471 0 3811.2)
(16262 326.56 0 20.396 0 3757.4)
(16045 302.87 0 20.301 0 3707.4)
(15844 279.32 0 20.179 0 3660.9)
(15658 255.96 0 20.02 0 3618.1)
(15488 232.83 0 19.815 0 3578.8)
(15334 209.99 0 19.55 0 3543.1)
(15194 187.53 0 19.213 0 3510.8)
(15069 165.53 0 18.789 0 3481.9)
(14959 144.1 0 18.259 0 3456.3)
(14863 123.37 0 17.606 0 3433.9)
(14780 103.49 0 16.811 0 3414.5)
(14709 84.64 0 15.855 0 3398.1)
(14651 66.995 0 14.72 0 3384.5)
(14605 50.765 0 13.393 0 3373.4)
(14568 36.165 0 11.864 0 3364.6)
(14541 23.413 0 10.133 0 3357.9)
(14521 12.723 0 8.2089 0 3352.9)
(14508 4.2888 0 6.1142 0 3349.4)
(14500 -1.7297 0 3.8855 0 3347.1)
(14496 -5.2212 0 1.5749 0 3345.5)
(14493 -6.1395 0 -0.75049 0 3344.3)
(14490 -4.5176 0 -3.0112 0 3343.3)
(14487 -0.47806 0 -5.1198 0 3341.9)
(14480 5.7631 0 -6.9875 0 3339.9)
(14469 13.899 0 -8.532 0 3337.1)
(14454 23.543 0 -9.6855 0 3333.2)
(14432 34.251 0 -10.403 0 3328)
(14403 45.543 0 -10.668 0 3321.4)
(14368 56.941 0 -10.495 0 3313.3)
(14326 67.996 0 -9.9291 0 3303.8)
(14278 78.319 0 -9.0392 0 3292.8)
(14223 87.602 0 -7.9126 0 3280.5)
(14163 95.633 0 -6.6438 0 3267)
(14099 102.3 0 -5.3249 0 3252.4)
(14031 107.57 0 -4.0367 0 3237)
(13960 111.52 0 -2.843 0 3220.9)
(13887 114.24 0 -1.7878 0 3204.2)
(13812 115.9 0 -0.89515 0 3187.2)
(13737 116.66 0 -0.1716 0 3170)
(13661 116.7 0 0.38975 0 3152.6)
(13585 116.19 0 0.80504 0 3135.2)
(13509 115.26 0 1.0949 0 3117.8)
(13435 114.05 0 1.2805 0 3100.6)
(13360 112.66 0 1.382 0 3083.5)
(13287 111.18 0 1.4176 0 3066.6)
(13215 109.66 0 1.4039 0 3049.8)
(13143 108.17 0 1.3541 0 3033.3)
(13072 106.73 0 1.2798 0 3017)
(13003 105.37 0 1.1891 0 3000.9)
(12934 104.11 0 1.0854 0 2984.9)
(12865 102.96 0 0.97266 0 2969.2)
(12798 101.94 0 0.85596 0 2953.5)
(12731 101.04 0 0.73515 0 2938.1)
(12664 100.27 0 0.61402 0 2922.7)
(12599 99.626 0 0.50365 0 2907.5)
(12533 99.102 0 0.40542 0 2892.3)
(12468 98.69 0 0.30949 0 2877.2)
(12403 98.371 0 0.22014 0 2862.2)
(12338 98.134 0 0.14858 0 2847.2)
(12273 97.968 0 0.08504 0 2832.2)
(12208 97.854 0 0.038437 0 2817.3)
(12143 97.775 0 0.03279 0 2802.3)
(12079 97.713 0 0.03768 0 2787.4)
(12014 97.643 0 0.04054 0 2772.6)
(11950 97.531 0 0.086712 0 2757.7)
(11886 97.362 0 0.16175 0 2742.9)
(11822 97.106 0 0.24451 0 2728.1)
(11758 96.714 0 0.38456 0 2713.4)
(11694 96.143 0 0.5771 0 2698.8)
(11631 95.33 0 0.7877 0 2684.4)
(11569 94.226 0 1.0438 0 2670.1)
(11508 92.808 0 1.3287 0 2655.9)
(11447 91.086 0 1.6131 0 2642.1)
(11388 89.045 0 1.9364 0 2628.5)
(11330 86.622 0 2.3092 0 2615.2)
(11274 83.783 0 2.7044 0 2602.4)
(11220 80.512 0 3.1056 0 2589.9)
(11168 76.813 0 3.4964 0 2578)
(11118 72.71 0 3.856 0 2566.7)
(11072 68.255 0 4.1596 0 2556)
(11028 63.522 0 4.3811 0 2545.9)
(10987 58.613 0 4.4971 0 2536.4)
(10949 53.652 0 4.4894 0 2527.7)
(10914 48.775 0 4.3483 0 2519.6)
(10882 44.124 0 4.0738 0 2512.2)
(10853 39.833 0 3.6774 0 2505.4)
(10826 36.018 0 3.1819 0 2499.2)
(10802 32.767 0 2.6197 0 2493.4)
(10780 30.129 0 2.0304 0 2488.1)
(10759 28.109 0 1.4566 0 2483.2)
(10739 26.67 0 0.93999 0 2478.5)
(10720 25.731 0 0.51698 0 2474)
(10702 25.181 0 0.21511 0 2469.7)
(10684 24.883 0 0.050478 0 2465.5)
(10666 24.69 0 0.026557 0 2461.4)
(10648 24.46 0 0.13429 0 2457.4)
(10631 24.062 0 0.35358 0 2453.4)
(10614 23.394 0 0.65587 0 2449.6)
(10598 22.383 0 1.0075 0 2445.9)
(10583 20.995 0 1.3734 0 2442.4)
(10568 19.227 0 1.721 0 2439.2)
(10555 17.112 0 2.0236 0 2436.2)
(10543 14.703 0 2.2627 0 2433.6)
(10533 12.07 0 2.4296 0 2431.3)
(10525 9.2847 0 2.526 0 2429.4)
(10518 6.415 0 2.5621 0 2427.9)
(10514 3.5142 0 2.5554 0 2426.8)
(10511 0.61581 0 2.5273 0 2426.2)
(10510 -2.2688 0 2.4998 0 2425.9)
(10511 -5.1499 0 2.4931 0 2426.2)
(10514 -8.0563 0 2.5224 0 2426.8)
(10519 -11.029 0 2.597 0 2428)
(10525 -14.116 0 2.719 0 2429.5)
(10534 -17.363 0 2.8843 0 2431.6)
(10545 -20.81 0 3.083 0 2434.2)
(10559 -24.483 0 3.3015 0 2437.4)
(10574 -28.393 0 3.5237 0 2441.1)
(10593 -32.534 0 3.7326 0 2445.4)
(10614 -36.882 0 3.9115 0 2450.3)
(10638 -41.393 0 4.0443 0 2455.9)
(10665 -46.009 0 4.1164 0 2462.2)
(10695 -50.655 0 4.1137 0 2469.1)
(10728 -55.24 0 4.0229 0 2476.7)
(10764 -59.66 0 3.8311 0 2484.9)
(10803 -63.797 0 3.5259 0 2493.8)
(10844 -67.519 0 3.0958 0 2503.2)
(10887 -70.687 0 2.5311 0 2513.1)
(10933 -73.15 0 1.8259 0 2523.3)
(10979 -74.759 0 0.97971 0 2533.9)
(11027 -75.368 0 0.0001895 0 2544.6)
(11074 -74.846 0 -1.0944 0 2555.3)
(11121 -73.094 0 -2.2731 0 2565.9)
(11167 -70.051 0 -3.4904 0 2576.2)
(11210 -65.715 0 -4.686 0 2585.9)
(11251 -60.157 0 -5.7865 0 2595.1)
(11288 -53.528 0 -6.7084 0 2603.4)
(11321 -46.072 0 -7.3649 0 2610.9)
(11350 -38.119 0 -7.6735 0 2617.4)
(11373 -30.077 0 -7.5662 0 2622.9)
(11393 -22.409 0 -6.9998 0 2627.4)
(11407 -15.607 0 -5.965 0 2631.1)
(11419 -10.145 0 -4.4927 0 2634.1)
(11427 -6.4439 0 -2.6558 0 2636.5)
(11434 -4.8272 0 -0.56587 0 2638.6)
(11441 -5.4852 0 1.6366 0 2640.7)
(11449 -8.4536 0 3.7956 0 2643.1)
(11460 -13.606 0 5.7569 0 2645.9)
(11474 -20.665 0 7.3846 0 2649.6)
(11493 -29.228 0 8.5762 0 2654.3)
(11518 -38.806 0 9.2728 0 2660.1)
(11548 -48.875 0 9.4633 0 2667.1)
(11585 -58.916 0 9.1824 0 2675.5)
(11627 -68.468 0 8.5023 0 2685.1)
(11675 -77.152 0 7.5202 0 2696)
(11728 -84.694 0 6.3428 0 2707.9)
(11785 -90.927 0 5.071 0 2720.7)
(11845 -95.775 0 3.7853 0 2734.4)
(11908 -99.233 0 2.5364 0 2748.6)
(11973 -101.33 0 1.3408 0 2763.2)
(12038 -102.11 0 0.18321 0 2778)
(12103 -101.58 0 -0.97415 0 2792.8)
(12168 -99.709 0 -2.1774 0 2807.4)
(12230 -96.444 0 -3.4643 0 2821.6)
(12291 -91.696 0 -4.8482 0 2835.2)
(12347 -85.393 0 -6.3066 0 2847.9)
(12400 -77.504 0 -7.7769 0 2859.6)
(12446 -68.087 0 -9.1615 0 2870.1)
(12487 -57.309 0 -10.341 0 2879.1)
(12520 -45.464 0 -11.193 0 2886.6)
(12546 -32.956 0 -11.616 0 2892.5)
(12564 -20.278 0 -11.544 0 2896.7)
(12574 -7.9607 0 -10.963 0 2899.1)
(12577 3.473 0 -9.9081 0 2900)
(12573 13.562 0 -8.4602 0 2899.5)
(12563 21.939 0 -6.7274 0 2897.7)
(12549 28.356 0 -4.8281 0 2894.8)
(12531 32.682 0 -2.872 0 2891.2)
(12512 34.888 0 -0.94654 0 2887.1)
(12491 35.023 0 0.89109 0 2882.8)
(12471 33.184 0 2.6148 0 2878.5)
(12453 29.483 0 4.225 0 2874.7)
(12437 24.029 0 5.7403 0 2871.4)
(12425 16.91 0 7.1875 0 2869)
(12418 8.1946 0 8.5915 0 2867.7)
(12417 -2.0673 0 9.967 0 2867.8)
(12423 -13.828 0 11.312 0 2869.4)
(12436 -27.023 0 12.604 0 2872.8)
(12458 -41.551 0 13.798 0 2878.1)
(12489 -57.251 0 14.83 0 2885.6)
(12530 -73.882 0 15.617 0 2895.2)
(12582 -91.111 0 16.065 0 2907.2)
(12644 -108.51 0 16.077 0 2921.4)
(12716 -125.53 0 15.562 0 2938)
(12798 -141.58 0 14.445 0 2956.7)
(12889 -155.96 0 12.675 0 2977.3)
(12988 -167.96 0 10.236 0 2999.5)
(13092 -176.88 0 7.1542 0 3022.9)
(13201 -182.07 0 3.4969 0 3047.1)
(13311 -182.96 0 -0.62564 0 3071.6)
(13419 -179.14 0 -5.0676 0 3095.5)
(13523 -170.35 0 -9.6587 0 3118.5)
(13619 -156.54 0 -14.218 0 3139.6)
(13705 -137.81 0 -18.572 0 3158.3)
(13777 -114.48 0 -22.568 0 3174)
(13832 -86.969 0 -26.087 0 3186)
(13868 -55.834 0 -29.057 0 3193.7)
(13884 -21.668 0 -31.449 0 3196.7)
(13876 14.922 0 -33.283 0 3194.6)
(13845 53.369 0 -34.617 0 3187)
(13788 93.18 0 -35.538 0 3173.7)
(13705 133.96 0 -36.154 0 3154.4)
(13596 175.44 0 -36.581 0 3129.1)
(13459 217.47 0 -36.934 0 3097.5)
(13295 260 0 -37.323 0 3059.5)
(13103 303.11 0 -37.844 0 3015.1)
(12883 346.97 0 -38.575 0 2964.1)
(12634 391.82 0 -39.575 0 2906.4)
(12355 437.96 0 -40.89 0 2841.8)
(12046 485.78 0 -42.584 0 2770.1)
(11706 535.72 0 -44.742 0 2691)
(11333 588.28 0 -47.411 0 2604.3)
(10926 643.95 0 -50.623 0 2509.7)
(10483 703.18 0 -54.492 0 2406.6)
(10003 766.57 0 -59.376 0 2294.6)
(9481.4 835.05 0 -65.865 0 2172.8)
(8918.4 910.3 0 -74.599 0 2040.9)
(8311.5 994.51 0 -85.722 0 1898.3)
(7664.8 1090.6 0 -97.96 0 1746.2)
(6982.2 1201.4 0 -106.21 0 1586.8)
(6287.3 1332.1 0 -97.353 0 1428.5)
(5632.2 1488.9 0 -44.252 0 1289.5)
(5085.9 1661.5 0 83.772 0 1193)
(4462.2 1741.7 0 237.74 0 1084.6)
(3343.8 1428.7 0 327.9 0 847.3)
(1298.8 411.24 0 139.56 0 331.92)
(27.741 6.6637 0 2.5288 0 6.9852)
(0.32046 0.049752 0 0.013267 0 0.077013)
(0.0055314 0.00070214 0 0.00013042 0 0.0013066)
(0.00030037 2.9982e-05 0 5.474e-06 0 7.0579e-05)
(0.00010781 5.5401e-06 0 1.4519e-07 0 2.4914e-05)
(0.00010499 6.1623e-06 0 2.784e-06 0 2.4872e-05)
(9.7756e-05 5.6381e-07 0 5.291e-07 0 2.2681e-05)
(9.9129e-05 1.2689e-06 0 3.9002e-07 0 2.2966e-05)
(9.9809e-05 2.477e-08 0 9.8358e-07 0 2.326e-05)
(0.00010173 -7.914e-07 0 3.4708e-06 0 2.4278e-05)
(9.8915e-05 -1.2648e-06 0 5.3111e-06 0 2.4052e-05)
(8.9322e-05 -1.4343e-06 0 4.1752e-06 0 2.1576e-05)
(0.00011115 -8.0431e-06 0 -6.0262e-07 0 2.551e-05)
(0.0001256 -1.4425e-05 0 -1.3825e-05 0 2.5794e-05)
(0.00014651 -1.7794e-05 0 -1.2775e-05 0 3.0862e-05)
(0.00016759 -1.2517e-05 0 8.1519e-07 0 3.8863e-05)
(0.00016087 3.5728e-06 0 -1.5534e-08 0 3.7121e-05)
(0.0001224 1.0973e-05 0 -1.0893e-06 0 2.7995e-05)
(0.00010333 1.2691e-05 0 1.2512e-06 0 2.4135e-05)
(9.4872e-05 1.2118e-05 0 1.1759e-06 0 2.2165e-05)
(0.0001034 9.5084e-06 0 1.2633e-06 0 2.4153e-05)
(0.00010108 6.8286e-06 0 3.9751e-07 0 2.3419e-05)
(0.00010107 5.744e-06 0 -2.9635e-07 0 2.3255e-05)
(9.5776e-05 5.2161e-06 0 -2.2979e-07 0 2.2049e-05)
(9.1824e-05 4.7145e-06 0 3.3885e-07 0 2.1268e-05)
(8.9133e-05 4.1556e-06 0 6.5859e-07 0 2.0721e-05)
(8.7144e-05 3.5652e-06 0 7.0662e-07 0 2.0273e-05)
(8.5464e-05 2.9702e-06 0 6.3143e-07 0 1.9868e-05)
(8.409e-05 2.4062e-06 0 5.2388e-07 0 1.9526e-05)
(8.2949e-05 1.9077e-06 0 4.2073e-07 0 1.9239e-05)
(8.2042e-05 1.4875e-06 0 3.406e-07 0 1.9011e-05)
(8.1207e-05 1.1523e-06 0 2.8613e-07 0 1.8806e-05)
(8.055e-05 8.9097e-07 0 2.4598e-07 0 1.8645e-05)
(8.0086e-05 6.742e-07 0 2.1415e-07 0 1.8531e-05)
(7.9761e-05 4.8183e-07 0 1.9398e-07 0 1.8451e-05)
(7.9551e-05 2.9575e-07 0 1.8425e-07 0 1.84e-05)
(7.9507e-05 1.0845e-07 0 1.7936e-07 0 1.8389e-05)
(7.9538e-05 -8.0222e-08 0 1.7972e-07 0 1.8396e-05)
(7.9691e-05 -2.7437e-07 0 1.8613e-07 0 1.8433e-05)
(7.9902e-05 -4.7112e-07 0 1.9858e-07 0 1.8485e-05)
(8.0256e-05 -6.615e-07 0 2.1905e-07 0 1.8571e-05)
(8.0643e-05 -8.372e-07 0 2.345e-07 0 1.8664e-05)
(8.1076e-05 -9.7095e-07 0 2.0847e-07 0 1.8758e-05)
(8.1272e-05 -1.0254e-06 0 1.1887e-07 0 1.8783e-05)
(8.0773e-05 -1.0349e-06 0 -1.011e-07 0 1.8617e-05)
(8.0808e-05 -1.4486e-06 0 -5.7472e-07 0 1.8515e-05)
(8.1179e-05 -1.5061e-06 0 -1.2717e-06 0 1.844e-05)
(8.0413e-05 6.4092e-07 0 -9.7133e-07 0 1.8333e-05)
(7.6167e-05 2.5928e-06 0 9.2126e-08 0 1.7598e-05)
(8.0812e-05 2.3955e-06 0 5.9249e-07 0 1.8786e-05)
(8.3298e-05 1.5773e-06 0 4.163e-07 0 1.9319e-05)
(8.3742e-05 1.0478e-06 0 2.2697e-07 0 1.9377e-05)
(8.3523e-05 7.5564e-07 0 1.3838e-07 0 1.9306e-05)
(8.3226e-05 5.9426e-07 0 9.0193e-08 0 1.9227e-05)
(8.2907e-05 5.1164e-07 0 5.4966e-08 0 1.9145e-05)
(8.2599e-05 4.727e-07 0 2.8467e-08 0 1.9068e-05)
(8.2296e-05 4.6057e-07 0 7.5782e-09 0 1.8993e-05)
(8.1984e-05 4.6761e-07 0 -8.8448e-09 0 1.8917e-05)
(8.1653e-05 4.8942e-07 0 -2.1457e-08 0 1.8838e-05)
(8.1299e-05 5.2285e-07 0 -3.1091e-08 0 1.8754e-05)
(8.0915e-05 5.6555e-07 0 -3.8624e-08 0 1.8664e-05)
(8.0498e-05 6.1582e-07 0 -4.4761e-08 0 1.8566e-05)
(8.0042e-05 6.7247e-07 0 -4.9968e-08 0 1.846e-05)
(7.9545e-05 7.3464e-07 0 -5.4535e-08 0 1.8344e-05)
(7.9004e-05 8.0173e-07 0 -5.8637e-08 0 1.8218e-05)
(7.8414e-05 8.7323e-07 0 -6.2372e-08 0 1.8081e-05)
(7.7775e-05 9.4876e-07 0 -6.5782e-08 0 1.7933e-05)
(7.7082e-05 1.0279e-06 0 -6.8873e-08 0 1.7772e-05)
(7.6335e-05 1.1103e-06 0 -7.1625e-08 0 1.7599e-05)
(7.5531e-05 1.1956e-06 0 -7.4011e-08 0 1.7413e-05)
(7.4668e-05 1.2833e-06 0 -7.6001e-08 0 1.7214e-05)
(7.3746e-05 1.373e-06 0 -7.7575e-08 0 1.7e-05)
(7.2763e-05 1.4641e-06 0 -7.8719e-08 0 1.6773e-05)
(7.1718e-05 1.5563e-06 0 -7.9429e-08 0 1.6532e-05)
(7.0611e-05 1.6489e-06 0 -7.9708e-08 0 1.6277e-05)
(6.9443e-05 1.7415e-06 0 -7.956e-08 0 1.6007e-05)
(6.8212e-05 1.8337e-06 0 -7.8993e-08 0 1.5723e-05)
(6.692e-05 1.9249e-06 0 -7.8015e-08 0 1.5425e-05)
(6.5567e-05 2.0147e-06 0 -7.6632e-08 0 1.5113e-05)
(6.4155e-05 2.1027e-06 0 -7.4849e-08 0 1.4788e-05)
(6.2686e-05 2.1882e-06 0 -7.2673e-08 0 1.4449e-05)
(6.116e-05 2.271e-06 0 -7.0111e-08 0 1.4098e-05)
(5.958e-05 2.3506e-06 0 -6.7169e-08 0 1.3734e-05)
(5.7948e-05 2.4265e-06 0 -6.3857e-08 0 1.3358e-05)
(5.6267e-05 2.4983e-06 0 -6.0184e-08 0 1.2971e-05)
(5.454e-05 2.5656e-06 0 -5.6163e-08 0 1.2573e-05)
(5.2769e-05 2.628e-06 0 -5.1807e-08 0 1.2166e-05)
(5.0959e-05 2.6851e-06 0 -4.713e-08 0 1.1749e-05)
(4.9114e-05 2.7366e-06 0 -4.2147e-08 0 1.1324e-05)
(4.7235e-05 2.7821e-06 0 -3.6875e-08 0 1.0892e-05)