/*--------------------------------*- C++ -*----------------------------------*\
| =========                 |                                                 |
| \\      /  F ield         | OpenFOAM: The Open Source CFD Toolbox           |
|  \\    /   O peration     | Version:  5.x                                   |
|   \\  /    A nd           | Web:      www.OpenFOAM.org                      |
|    \\/     M anipulation  |                                                 |
\*---------------------------------------------------------------------------*/
FoamFile
{
    version     2.0;
    format      ascii;
    class       volScalarField;
    location    "200";
    object      gamma;
}
// * * * * * * * * * * * * * * * * * * * * * * * * * * * * * * * * * * * * * //

dimensions      [0 0 0 0 0 0 0];

internalField   nonuniform List<scalar> 
86400
(
4.921e-09
7.534e-09
1.551e-08
4.774e-08
1.619e-07
3.62e-07
4.423e-07
5.667e-07
7.787e-07
8.021e-07
7.85e-07
4.696e-07
2.337e-07
7.686e-08
1.233e-07
4.068e-07
4.409e-06
1.319e-05
3.321e-05
1.979e-05
1.688e-05
1.926e-05
4.079e-05
4.123e-05
5.274e-05
0.0001188
0.0002004
0.0004099
0.0006279
0.0008655
0.0007889
0.0007082
0.0006017
0.0005045
0.0004683
0.0005709
0.0005649
0.0005552
0.0004529
0.0004745
0.0004837
0.0005684
0.0004711
0.0003161
0.0002759
0.0003124
0.0004663
0.0006016
0.0007153
0.0006484
0.0006756
0.00074
0.0008021
0.0008398
0.0008744
0.001052
0.001355
0.001622
0.001786
0.001801
0.001532
0.001543
0.001395
0.001393
0.001662
0.002121
0.002531
0.002639
0.001951
0.001656
0.001963
0.002736
0.004164
0.003862
0.00323
0.002316
0.001478
0.001209
0.001329
0.001462
0.00196
0.002157
0.001862
0.001525
0.001369
0.001166
0.001258
0.001316
0.001536
0.001729
0.001568
0.001747
0.001991
0.002798
0.00326
0.003718
0.003344
0.003519
0.003731
0.003588
0.003179
0.003221
0.002786
0.002367
0.001436
0.001354
0.0015
0.002443
0.002511
0.002341
0.0016
0.001343
0.001097
0.0007978
0.0004816
0.0003224
0.000264
0.0002437
0.0002148
0.0002111
0.0002558
0.0003127
0.000427
0.0004996
0.000453
0.0003891
0.0003245
0.0002847
0.0002482
0.0002034
0.0001286
9.405e-05
7.622e-05
6.417e-05
5.7e-05
6.148e-05
8.184e-05
0.0001181
5.201e-05
8.644e-06
1.598e-06
1.312e-06
2.047e-06
2.632e-06
1.205e-06
1.567e-07
1.382e-08
1.875e-09
8.251e-10
4.187e-10
8.851e-10
1.338e-09
5.383e-09
6.051e-09
2.217e-08
6.516e-08
2.491e-07
1.538e-06
0.03526
0.9995
7.472e-09
9.623e-09
1.796e-08
4.101e-08
1.12e-07
2.089e-07
2.299e-07
2.675e-07
3e-07
1.815e-07
1.566e-07
1.324e-07
1.257e-07
1.341e-07
2.914e-07
7.885e-07
3.792e-06
1.27e-05
3.593e-05
3.824e-05
4.454e-05
7.269e-05
0.0001479
0.0001913
0.0002493
0.00032
0.0002934
0.000312
0.0003287
0.0003311
0.0002783
0.0002923
0.0003138
0.0003464
0.0004016
0.0005442
0.0005897
0.0006924
0.0007115
0.0008033
0.0007971
0.000843
0.0007216
0.0005427
0.0004724
0.0005497
0.0007367
0.001012
0.001381
0.001555
0.001871
0.002341
0.002827
0.003251
0.003383
0.002888
0.002299
0.0019
0.001644
0.001598
0.001567
0.001663
0.00145
0.001463
0.001801
0.002857
0.003671
0.004084
0.003319
0.003134
0.003821
0.004188
0.003693
0.002422
0.001595
0.001325
0.001643
0.002221
0.002674
0.002758
0.0032
0.003469
0.003769
0.003713
0.003648
0.003305
0.003654
0.00401
0.005335
0.007108
0.007917
0.009146
0.009351
0.008788
0.00772
0.007058
0.006139
0.005161
0.003782
0.003155
0.002956
0.003816
0.005521
0.004975
0.002218
0.00149
0.001382
0.00174
0.002392
0.002599
0.00168
0.001514
0.001639
0.001726
0.001453
0.001007
0.0006981
0.0005612
0.0004806
0.0004952
0.0005427
0.0005224
0.0005204
0.0004986
0.0004598
0.0005259
0.0005694
0.0006165
0.0005589
0.0004301
0.0002537
0.00019
0.0001587
0.0001882
0.0002289
0.0002231
0.000217
0.0001973
8.484e-05
2.06e-05
9.621e-06
5.959e-06
3.867e-06
2.019e-06
5.646e-07
6.891e-08
1.356e-08
6.413e-09
9.504e-09
9.992e-09
1.375e-08
2.005e-08
7.969e-08
2.023e-07
1.395e-06
1.624e-05
0.000287
0.04371
0.9819
1
1.635e-08
1.948e-08
2.836e-08
4.402e-08
9.501e-08
1.415e-07
1.378e-07
1.505e-07
1.386e-07
8.734e-08
8.854e-08
1.278e-07
1.893e-07
3.464e-07
8.099e-07
3.047e-06
1.255e-05
5.339e-05
0.0001145
0.0001463
0.0001127
0.0001731
0.0002614
0.0003488
0.0005261
0.000829
0.0008655
0.0008774
0.0008605
0.0006748
0.0005731
0.0007186
0.0007751
0.000747
0.000644
0.0006357
0.0005747
0.0006714
0.0006855
0.0006435
0.0004718
0.000426
0.0003589
0.0003683
0.0004797
0.0007705
0.001193
0.001934
0.003159
0.003144
0.00247
0.001841
0.001418
0.001301
0.001563
0.001407
0.001218
0.001038
0.0009533
0.0009687
0.001108
0.001311
0.001299
0.001655
0.001838
0.002168
0.002433
0.002604
0.002292
0.002346
0.002678
0.002178
0.001574
0.001296
0.001296
0.002189
0.004308
0.006468
0.006928
0.006991
0.007424
0.00814
0.009326
0.009994
0.01122
0.01089
0.0111
0.01105
0.008912
0.006304
0.003838
0.002433
0.002177
0.002851
0.003474
0.004178
0.004711
0.003381
0.002247
0.001903
0.001829
0.002301
0.003415
0.002676
0.001236
0.00101
0.001314
0.002162
0.003981
0.004056
0.002897
0.003342
0.004221
0.004656
0.003536
0.002231
0.00124
0.0008312
0.0006399
0.0006577
0.0006193
0.0006294
0.0005792
0.0004906
0.000408
0.0004446
0.0004481
0.0004799
0.0004463
0.0003603
0.0002435
0.0001977
0.0001703
0.0002341
0.0003118
0.0002636
0.0002088
0.0001456
6.82e-05
2.127e-05
1.148e-05
5.474e-06
2.819e-06
1.36e-06
5.19e-07
1.18e-07
3.621e-08
2.774e-08
5.128e-08
1.017e-07
2.471e-07
4.555e-07
1.402e-06
5.27e-06
6.4e-05
0.002178
0.1359
0.9822
0.9999
1
4.19e-08
4.305e-08
4.732e-08
5.101e-08
7.612e-08
7.77e-08
6.051e-08
5.949e-08
5.894e-08
5.302e-08
8.283e-08
8.272e-08
8.402e-08
2.028e-07
7.526e-07
2.371e-06
9.791e-06
2.419e-05
1.517e-05
1.131e-05
7.3e-06
7.743e-06
1.574e-05
3.087e-05
6.719e-05
0.0001683
0.0002892
0.0003821
0.0004779
0.0004641
0.0004389
0.0007223
0.001023
0.001195
0.0009964
0.000864
0.0007144
0.0008736
0.0009282
0.0008016
0.0005488
0.0005324
0.0006063
0.0009456
0.001161
0.001294
0.001057
0.001082
0.001395
0.001356
0.0008879
0.0006409
0.000586
0.0005595
0.0007273
0.0005943
0.0004048
0.0003238
0.0003927
0.0005695
0.0008296
0.001168
0.001383
0.001804
0.001848
0.001867
0.001703
0.00157
0.001331
0.002001
0.003218
0.002819
0.002442
0.002469
0.002119
0.003946
0.007083
0.008281
0.006422
0.006863
0.005628
0.004672
0.004016
0.003141
0.002701
0.002858
0.002929
0.003004
0.002736
0.002601
0.002304
0.001877
0.00208
0.002758
0.003222
0.003598
0.004308
0.002696
0.001675
0.001354
0.001378
0.00189
0.00327
0.00286
0.001301
0.0006906
0.0006
0.0009316
0.001538
0.001693
0.001276
0.001289
0.00118
0.00184
0.002041
0.002143
0.001662
0.001645
0.001274
0.001389
0.001162
0.001131
0.0008774
0.0006843
0.0005609
0.0006282
0.0007321
0.0008468
0.0008687
0.0007501
0.0005377
0.0004719
0.0004654
0.0005654
0.0005633
0.0003181
0.0001395
3.98e-05
1.965e-05
7.441e-06
4.497e-06
2.074e-06
1.065e-06
5.46e-07
3.421e-07
1.7e-07
1.297e-07
3.249e-07
1.514e-06
3.273e-06
6.571e-06
1.306e-05
4.455e-05
0.0004076
0.01487
0.8134
0.9949
1
1
1
1.443e-07
1.126e-07
9.451e-08
8.049e-08
7.451e-08
5.969e-08
3.505e-08
3.2e-08
4.007e-08
4.702e-08
9.781e-08
6.136e-08
1.906e-08
3.483e-08
2.23e-07
1.417e-06
1.868e-05
1.878e-05
3.843e-06
1.227e-06
1.031e-06
1.206e-06
2.958e-06
3.802e-06
8.954e-06
4.165e-05
0.0002366
0.0009273
0.002218
0.001476
0.000692
0.0005964
0.0004884
0.0004161
0.0003693
0.000314
0.0002246
0.0003597
0.000676
0.0009759
0.0005909
0.0002738
0.0001122
9.298e-05
7.509e-05
7.319e-05
7.135e-05
0.0001249
0.0003279
0.0006302
0.0005294
0.0003158
0.0003858
0.0005051
0.0007435
0.000559
0.0003092
0.0002708
0.000391
0.0007689
0.001488
0.002659
0.003983
0.005216
0.004097
0.002357
0.001574
0.00109
0.0007145
0.0008107
0.001278
0.001143
0.001614
0.002783
0.003014
0.003138
0.003172
0.001812
0.0008535
0.0006543
0.0002792
0.0001075
7.39e-05
8.2e-05
0.0001545
0.0004793
0.001008
0.001107
0.001002
0.0009582
0.0007265
0.0007098
0.001033
0.001532
0.002469
0.002792
0.003183
0.001999
0.001465
0.0009398
0.0004343
0.0002675
0.0004194
0.0006129
0.0007768
0.001001
0.001082
0.00143
0.001772
0.001624
0.0009662
0.0007638
0.000554
0.001069
0.001049
0.001024
0.0007138
0.000667
0.0004129
0.0005265
0.0004856
0.0005052
0.0004298
0.0003268
0.0002668
0.0002678
0.0002762
0.0003475
0.0004421
0.0004943
0.0004945
0.0004841
0.0004523
0.0003907
0.0002537
8.949e-05
2.452e-05
6.9e-06
3.273e-06
1.311e-06
9.209e-07
5.616e-07
5.142e-07
6.009e-07
8.103e-07
8.652e-07
9.912e-07
1.76e-06
7.015e-06
2.2e-05
8.336e-05
0.0003933
0.003922
0.1237
0.9522
0.9993
1
1
1
1
2.941e-07
1.948e-07
1.509e-07
1.219e-07
7.701e-08
4.8e-08
3.128e-08
2.994e-08
5.24e-08
1.015e-07
3.13e-07
1.12e-07
1.624e-08
1.079e-08
1.387e-07
6.8e-07
8.728e-06
5.403e-06
1.066e-06
3.428e-07
8.126e-07
1.334e-06
3.454e-06
1.621e-06
1.58e-06
3.553e-06
1.439e-05
0.000103
0.0005142
0.0004201
0.0001715
0.0001068
8.061e-05
7.749e-05
0.0001229
0.0001373
6.969e-05
6.929e-05
0.0001016
7.479e-05
1.997e-05
6.335e-06
1.124e-06
4.07e-07
2.349e-07
1.075e-07
3.877e-08
6.804e-08
3.222e-07
1.491e-06
2.908e-06
5.133e-06
1.404e-05
6.591e-05
0.0001754
0.0001363
4.866e-05
3.327e-05
5.329e-05
0.0001943
0.0005925
0.001241
0.00146
0.001874
0.001636
0.001009
0.00122
0.001057
0.0006757
0.0006635
0.001147
0.001037
0.001581
0.001843
0.0007861
0.0001998
3.93e-05
1.229e-05
8.4e-06
1.373e-05
1.407e-05
9.921e-06
7.438e-06
1.231e-05
4.245e-05
0.0002557
0.0009959
0.001354
0.001533
0.001586
0.001509
0.001029
0.0009573
0.000843
0.0007507
0.0007797
0.0007125
0.0005911
0.0006917
0.0006176
0.0003594
0.0002097
0.0002313
0.0003503
0.0006688
0.000967
0.0006589
0.0007653
0.0008405
0.0007497
0.000295
0.0001454
6.933e-05
0.0001517
0.0002383
0.0003878
0.0003702
0.0003299
0.000226
0.0002773
0.0002313
0.0002155
0.0001783
0.0001354
0.0001167
0.0001172
0.0001165
0.0001501
0.0001916
0.0002002
0.0001576
0.0001204
8.749e-05
5.535e-05
4.087e-05
1.984e-05
1.199e-05
5.935e-06
3.664e-06
1.461e-06
1.136e-06
8.612e-07
8.22e-07
1.036e-06
1.724e-06
2.849e-06
7.643e-06
2.907e-05
0.0001782
0.0009058
0.006271
0.0722
0.8959
0.9959
1
1
1
1
1
1
4.299e-07
2.221e-07
1.415e-07
8.986e-08
6.854e-08
5.616e-08
5.71e-08
7.203e-08
1.905e-07
4.001e-07
9.657e-07
2.954e-07
1.542e-08
6.16e-09
4.821e-08
3.89e-07
1.225e-05
3.104e-05
9.61e-06
4.692e-06
1.771e-05
2.072e-05
3.342e-05
7.392e-06
2.942e-06
3.968e-06
1.282e-05
6.385e-05
0.0003796
0.0003714
0.0001793
6.155e-05
4.164e-05
5.037e-05
9.961e-05
0.0001111
3.57e-05
2.101e-05
3.231e-05
2.046e-05
2.702e-06
2.913e-07
1.18e-08
1.25e-09
4.68e-10
7.524e-11
2.187e-11
6.14e-11
9.017e-10
1.176e-08
6.103e-08
7.878e-08
1.02e-07
2.503e-07
3.059e-07
4.37e-07
6.784e-07
2.172e-06
1.273e-05
9.403e-05
0.0002972
0.0007229
0.001054
0.002009
0.002151
0.001053
0.001244
0.001019
0.0007063
0.0004912
0.0006602
0.0003457
0.0003499
0.0002954
0.0001259
3.008e-05
5.257e-06
1.738e-06
8.692e-07
1.313e-06
1.913e-06
2.612e-06
3.875e-06
9.333e-06
2.998e-05
7.316e-05
0.0001545
0.0001539
0.0002731
0.0007381
0.0009812
0.0007129
0.0003937
0.0002223
0.0001416
8.874e-05
3.586e-05
1.536e-05
9.842e-06
6.906e-06
9.728e-06
1.294e-05
3.356e-05
0.0001537
0.0007346
0.001146
0.0008706
0.0008873
0.0008521
0.0005407
0.0002187
6.935e-05
2.878e-05
6.156e-05
0.0001621
0.0002616
0.0002429
0.0001654
0.0001037
0.0001188
0.0001172
0.0001262
0.0001244
0.0001004
6.584e-05
3.855e-05
2.148e-05
1.772e-05
1.965e-05
2.561e-05
2.536e-05
2.286e-05
1.424e-05
5.834e-06
3.724e-06
3.783e-06
5.1e-06
6.269e-06
7.485e-06
3.667e-06
2.943e-06
3.351e-06
6.423e-06
1.594e-05
6.416e-05
0.0002523
0.001234
0.005804
0.03954
0.6131
0.9546
0.9973
1
1
1
1
1
1
1
1
8.951e-07
2.957e-07
1.365e-07
7.886e-08
7.34e-08
7.753e-08
1.514e-07
2.948e-07
5.024e-07
3.674e-07
5.642e-07
1.389e-07
7.53e-09
6.316e-09
6.395e-08
7.325e-07
2.878e-05
0.0001768
0.0001718
0.0002807
0.0006533
0.0005744
0.0005662
0.0001305
3.803e-05
1.236e-05
8.426e-06
1.655e-05
6.983e-05
0.0001068
9.05e-05
6.408e-05
4.942e-05
7.981e-05
0.0001876
0.0002476
8.062e-05
4.834e-05
5.777e-05
1.129e-05
6.11e-07
1.706e-08
3.784e-10
2.611e-11
2.119e-11
3.695e-12
1.078e-12
1.803e-12
6.018e-12
6.003e-11
4.316e-10
6.272e-10
1.234e-09
4.103e-09
4.413e-09
5.463e-09
1.777e-08
1.684e-07
2.634e-06
4.633e-05
0.0002167
0.0006341
0.001118
0.003049
0.00332
0.001657
0.001322
0.000812
0.0003446
0.0001247
5.509e-05
1.751e-05
9.887e-06
1.178e-05
1.16e-05
6.497e-06
1.304e-06
4.937e-07
1.62e-07
1.574e-07
2.148e-07
6.075e-07
2.666e-06
1.242e-05
3.723e-05
5.117e-05
7.416e-05
7.177e-05
0.0001217
0.0004079
0.0007883
0.0006633
0.0002239
0.0001446
0.0001114
7.886e-05
3.681e-05
1.088e-05
2.125e-06
8.838e-07
2.268e-06
8.334e-06
3.279e-05
6.84e-05
9.727e-05
7.157e-05
6.949e-05
0.0001217
0.0001819
0.0001251
3.67e-05
4.951e-06
2.683e-06
9.329e-06
4.776e-05
9.287e-05
0.000104
3.817e-05
1.783e-05
1.77e-05
1.721e-05
1.642e-05
1.626e-05
1.546e-05
1.276e-05
9.864e-06
5.803e-06
4.161e-06
3.911e-06
5.23e-06
7.118e-06
9.638e-06
5.963e-06
1.975e-06
1.093e-06
1.715e-06
6.869e-06
2.675e-05
6.094e-05
6.209e-05
0.0001026
0.0002364
0.0009242
0.002572
0.00991
0.09952
0.7744
0.9703
0.9971
0.9998
1
1
1
1
1
1
1
1
1
1
1.979e-06
3.566e-07
1.136e-07
5.559e-08
6.2e-08
1.028e-07
4.89e-07
5.858e-07
3.937e-07
1.589e-07
8.893e-08
3.208e-08
9.316e-09
2.382e-08
3.083e-07
2.613e-06
1.489e-05
4.457e-05
4.362e-05
5.272e-05
0.0001833
0.0005822
0.001351
0.001244
0.0008956
0.0002199
5.37e-05
2.695e-05
4.314e-05
7.771e-05
0.0001433
0.0001302
7.943e-05
0.000108
0.0001708
0.0002043
8.35e-05
6.055e-05
0.0001016
5.583e-06
8.571e-08
7.219e-10
1.046e-11
1.441e-12
1.012e-11
6.622e-12
3.101e-12
2.931e-12
2.943e-12
4.989e-12
3.896e-11
1.034e-10
4.269e-10
7.68e-10
4.043e-10
1.665e-10
4.43e-10
8.201e-09
3.497e-07
1.904e-05
0.000196
0.0006933
0.001063
0.002093
0.001475
0.0004323
0.000149
5.624e-05
9.049e-06
2.167e-06
5.931e-07
1.842e-07
8.433e-08
1.562e-07
1.96e-07
7.24e-07
9.274e-07
1.095e-06
4.7e-07
4.327e-07
1.173e-06
1.491e-05
0.0004536
0.005494
0.0188
0.01377
0.00894
0.00912
0.01163
0.01747
0.01896
0.01605
0.01065
0.01134
0.01023
0.01631
0.0104
0.001164
5.666e-05
2.529e-06
2.485e-06
6.359e-06
4.175e-05
7.28e-05
3.833e-05
1.231e-05
1.576e-05
1.966e-05
2.33e-05
1.043e-05
1.973e-06
3.484e-07
5.324e-07
1.033e-06
3.989e-06
6.256e-06
7.506e-06
3.151e-06
2.004e-06
1.414e-06
1.094e-06
8.878e-07
8.222e-07
9.116e-07
1.107e-06
1.436e-06
1.062e-06
7.173e-07
6.072e-07
1.159e-06
4.249e-06
2.383e-05
4.254e-05
2.871e-05
2.052e-05
4.042e-05
0.0002316
0.001741
0.004704
0.006879
0.01849
0.1172
0.8017
0.9683
0.9944
0.9993
0.9999
1
1
1
1
1
1
1
1
1
1
1
1
1
1.646e-06
2.836e-07
1.171e-07
7.628e-08
1.274e-07
2.739e-07
6.892e-07
2.918e-07
1.084e-07
5.017e-08
2.155e-08
2.584e-08
3.478e-08
1.95e-07
2.86e-06
1.157e-05
1.09e-05
4.022e-06
1.159e-06
6.059e-07
2.301e-06
1.894e-05
0.000189
0.0009425
0.00162
0.0004266
6.625e-05
2.588e-05
2.668e-05
9.351e-05
0.0002976
0.0002812
0.0001152
8.788e-05
6.141e-05
9.377e-05
0.0001342
0.0002136
0.0002539
6.181e-06
4.578e-08
2.182e-10
5.191e-12
2.165e-12
5.094e-11
1.255e-10
5.266e-11
1.286e-11
1.22e-12
3.936e-13
3.795e-12
3.526e-11
5.959e-10
1.926e-09
3.324e-10
3.037e-11
4.172e-11
8.971e-10
1.529e-07
2.299e-05
0.0002199
0.0005069
0.0002096
0.0001247
2.956e-05
5.52e-06
1.563e-06
6.565e-07
1.794e-07
1.084e-07
6.597e-08
5.404e-08
7.109e-08
5.79e-07
1.633e-06
1.125e-05
7.073e-05
0.0006896
0.001252
0.002828
0.01044
0.09306
0.8534
0.9856
0.9972
0.9989
0.9993
0.9992
0.9988
0.9986
0.9985
0.9986
0.999
0.999
0.9988
0.999
0.9983
0.9922
0.9135
0.08436
0.005382
0.005465
0.01199
0.005124
0.0004141
3.131e-05
2.208e-05
1.696e-05
1.039e-05
2.302e-06
2.323e-07
6.992e-08
2.635e-07
6.771e-07
3.858e-06
7.506e-06
1.429e-05
1.007e-05
9.508e-06
5.357e-06
3.647e-06
2.735e-06
2.447e-06
3.494e-06
7.443e-06
2.187e-05
2.941e-05
2.309e-05
1.782e-05
2.85e-05
0.0001411
0.001633
0.005312
0.004988
0.004306
0.009579
0.1283
0.8632
0.9754
0.9934
0.9981
0.9995
0.9999
1
1
1
1
1
1
1
1
1
1
1
1
1
1
1
1
1
5.628e-07
1.164e-07
8.102e-08
1.21e-07
4.027e-07
9.724e-07
5.951e-07
1.13e-07
2.622e-08
1.616e-08
1.272e-08
3.904e-08
2.056e-07
2.533e-06
1.299e-05
2.758e-05
4.704e-06
1.764e-07
1.505e-08
6.686e-09
4.839e-08
8.596e-07
4.114e-05
0.0005245
0.001707
0.0006612
0.000251
0.0001064
8.028e-05
0.0002042
0.000363
0.0001484
2.422e-05
5.461e-06
3.373e-06
5.715e-06
2.38e-05
0.0001092
0.0001936
1.189e-05
1.541e-07
9.631e-10
3.891e-11
2.791e-11
3.709e-10
9.089e-10
5.036e-10
7.806e-11
4.088e-12
8.999e-13
7.267e-12
1.416e-10
7.927e-09
3.932e-08
5.799e-09
2.317e-10
1.773e-10
3.131e-09
4.986e-07
7.771e-05
0.0003347
0.0001825
2.516e-05
7.236e-06
1.991e-06
4.1e-07
9.418e-08
3.516e-08
2.21e-08
3.827e-08
1.559e-07
1.034e-06
6.015e-06
6.588e-05
0.0003399
0.004181
0.1061
0.9069
0.9777
0.9943
0.9976
0.9992
0.9999
1
1
1
1
1
1
1
1
1
1
1
1
1
1
1
1
0.9997
0.998
0.9964
0.9958
0.9862
0.8554
0.04881
0.007961
0.001788
0.0002987
1.634e-05
2.864e-06
1.449e-06
1.05e-05
3.795e-05
0.0001128
0.0001466
0.0003723
0.0003447
0.0004065
0.000212
0.0001023
4.641e-05
2.826e-05
4.285e-05
0.0001866
0.001564
0.005084
0.00568
0.005114
0.00932
0.1155
0.8847
0.9861
0.9959
0.9981
0.9988
0.9996
0.9999
1
1
1
1
1
1
1
1
1
1
1
1
1
1
1
1
1
1
1
1
1
1
1.111e-07
4.08e-08
5.474e-08
1.25e-07
3.03e-07
7.27e-07
2.283e-07
6.198e-08
2.379e-08
6.972e-08
7.967e-08
6.113e-07
4.698e-06
2.121e-05
4.083e-05
4.872e-05
3.172e-06
6.39e-08
3.155e-09
8.813e-10
8.572e-09
7.496e-07
9.28e-05
0.0009682
0.002099
0.0006039
0.0002945
0.000163
0.0001818
0.0004055
0.0004494
0.0001089
8.341e-06
1.379e-06
5.037e-07
9.12e-07
5.653e-06
2.477e-05
3.463e-05
3.745e-06
8.806e-08
2.523e-09
2.755e-10
2.623e-10
9.113e-10
9.896e-10
4.537e-10
3.871e-11
1.355e-12
3.507e-13
2.894e-12
2.177e-10
5.951e-08
1.363e-06
4.007e-07
1.233e-08
3.301e-09
2.689e-08
1.473e-06
6.77e-05
9.297e-05
1.88e-05
8.847e-07
1.137e-07
2.873e-08
1.252e-08
1.111e-08
3.573e-08
2.967e-07
2.513e-06
7.073e-05
0.0009961
0.01869
0.4295
0.8988
0.9866
0.9988
1
1
1
1
1
1
1
1
1
1
1
1
1
1
1
1
1
1
1
1
1
1
1
1
1
1
1
1
0.9994
0.9974
0.9859
0.8925
0.07933
0.001554
0.000329
0.001147
0.003819
0.01187
0.009354
0.01294
0.01484
0.01436
0.01117
0.007514
0.004623
0.004138
0.01229
0.1211
0.8822
0.9846
0.9955
0.9979
0.9988
0.9995
0.9999
1
1
1
1
1
1
1
1
1
1
1
1
1
1
1
1
1
1
1
1
1
1
1
1
1
1
1
1
5.347e-08
4.315e-08
6.572e-08
1.59e-07
3.5e-07
6.866e-07
1.708e-07
6.751e-08
7.069e-08
1.673e-07
3.884e-07
3.823e-06
1.938e-05
4.631e-05
8.35e-05
5.762e-05
6.754e-06
1.67e-07
7.826e-09
1.396e-09
1.016e-08
7.199e-07
9.361e-05
0.00093
0.002705
0.001342
0.001166
0.0008878
0.0009668
0.00126
0.0009454
0.0002251
3.24e-05
6.092e-06
1.638e-06
1.829e-06
8.156e-06
2.218e-05
2.352e-05
5.244e-06
4.965e-07
3.388e-08
9.629e-09
6.54e-09
4.64e-09
4.216e-09
1.397e-09
3.797e-10
4.268e-11
2.839e-11
1.297e-10
3.247e-09
1.774e-07
1.342e-06
5.335e-07
4.731e-08
2.591e-08
1.504e-07
6.137e-06
3.488e-05
7.392e-06
6.021e-07
2.509e-08
1.054e-08
2.304e-08
7.908e-08
3.89e-07
8.155e-06
0.0002988
0.01264
0.6827
0.9693
0.9958
0.9993
1
1
1
1
1
1
1
1
1
1
1
1
1
1
1
1
1
1
1
1
1
1
1
1
1
1
1
1
1
1
1
1
1
1
1
0.9996
0.9987
0.9983
0.9988
0.9989
0.999
0.9981
0.9978
0.998
0.9982
0.9986
0.9984
0.9979
0.9976
0.9984
0.9993
0.9999
1
1
1
1
1
1
1
1
1
1
1
1
1
1
1
1
1
1
1
1
1
1
1
1
1
1
1
1
1
1
1
1
1
1
7.346e-08
8.716e-08
1.798e-07
2.822e-07
5.308e-07
7.142e-07
3.305e-07
2.121e-07
6.318e-07
8.113e-07
1.907e-06
8.395e-06
2.874e-05
3.923e-05
5.97e-05
5.969e-05
3.283e-05
1.561e-06
1.095e-07
1.46e-08
6.642e-08
2.27e-06
0.0001448
0.000749
0.001317
0.0009514
0.001355
0.001781
0.002344
0.00258
0.001906
0.0008457
0.0003088
9.475e-05
2.332e-05
1.558e-05
2.665e-05
4.343e-05
4.744e-05
2.775e-05
6.616e-06
1.29e-06
6.875e-07
4.591e-07
1.474e-07
1.562e-07
8.762e-08
4.204e-08
7.619e-09
3.889e-09
3.759e-09
1.92e-08
1.182e-07
2.896e-07
1.301e-07
4.29e-08
7.661e-08
8.267e-07
1.244e-05
1.781e-05
1.799e-06
4.329e-07
1.496e-07
4.527e-07
6.918e-06
0.0001502
0.001582
0.1201
0.9152
0.9925
0.9996
1
1
1
1
1
1
1
1
1
1
1
1
1
1
1
1
1
1
1
1
1
1
1
1
1
1
1
1
1
1
1
1
1
1
1
1
1
1
1
1
1
1
1
1
1
1
1
1
1
1
1
1
1
1
1
1
1
1
1
1
1
1
1
1
1
1
1
1
1
1
1
1
1
1
1
1
1
1
1
1
1
1
1
1
1
1
1
1
1
3.475e-07
4.363e-07
1.046e-06
4.952e-07
8.267e-07
6.113e-07
7.054e-07
1.141e-06
4.269e-06
2.095e-06
4.271e-06
3.418e-06
1.26e-05
1.077e-05
2.156e-05
1.257e-05
3.231e-06
6.958e-08
3.16e-09
4.373e-10
2.16e-09
8.087e-08
7.257e-06
4.521e-05
0.0001578
0.0001838
0.0002923
0.0005663
0.001001
0.001082
0.0009165
0.0005937
0.0005276
0.0003479
0.0001541
8.397e-05
0.0001145
0.0001468
0.0002103
0.0002944
8.539e-05
3.11e-05
1.652e-05
1.506e-05
5.84e-06
1.103e-05
8.742e-06
6.456e-06
1.958e-06
1.294e-06
5.565e-07
4.59e-07
5.707e-07
7.793e-07
5.712e-07
2.563e-07
3.906e-07
1.089e-06
4.887e-06
6.759e-06
3.585e-06
5.141e-06
2.027e-05
0.0006504
0.05225
0.852
0.9788
0.999
1
1
1
1
1
1
1
1
1
1
1
1
1
1
1
1
1
1
1
1
1
1
1
1
1
1
1
1
1
1
1
1
1
1
1
1
1
1
1
1
1
1
1
1
1
1
1
1
1
1
1
1
1
1
1
1
1
1
1
1
1
1
1
1
1
1
1
1
1
1
1
1
1
1
1
1
1
1
1
1
1
1
1
1
1
1
1
1
1
1
1
1
9.043e-07
1.324e-06
4.778e-06
1.727e-06
1.31e-06
5.507e-07
8.821e-07
2.159e-06
6.76e-06
2.591e-06
4.853e-06
2.939e-06
4.366e-06
6.748e-06
5.681e-06
4.747e-07
5.645e-08
7.428e-10
2.662e-11
4.432e-12
4.244e-11
5.738e-09
1.146e-06
1.81e-05
0.0001149
9.957e-05
0.0002429
0.0004754
0.0009514
0.0009919
0.000886
0.0006363
0.0007592
0.0008277
0.0005798
0.0004481
0.0006235
0.0006874
0.001001
0.001796
0.0006443
0.000274
0.0001433
0.0001708
7.207e-05
8.301e-05
7.064e-05
8.104e-05
7.909e-05
8.831e-05
4.151e-05
1.475e-05
6.777e-06
2.304e-06
9.659e-07
4.644e-07
3.922e-07
9.339e-07
8.372e-06
3.404e-05
0.0001755
0.003373
0.07236
0.8934
0.9942
0.9998
1
1
1
1
1
1
1
1
1
1
1
1
1
1
1
1
1
1
1
1
1
1
1
1
1
1
1
1
1
1
1
1
1
1
1
1
1
1
1
1
1
1
1
1
1
1
1
1
1
1
1
1
1
1
1
1
1
1
1
1
1
1
1
1
1
1
1
1
1
1
1
1
1
1
1
1
1
1
1
1
1
1
1
1
1
1
1
1
1
1
1
1
1
1
2.26e-06
4.739e-06
2.303e-05
1.137e-05
4.488e-06
1.797e-06
3.783e-06
6.123e-06
1.041e-05
4.791e-06
5.358e-06
5.677e-06
9.106e-06
1.333e-05
1.722e-06
4.301e-08
1.931e-09
3.046e-11
2.486e-12
9.196e-13
2.826e-11
4.901e-09
8.8e-07
1.967e-05
0.0001947
0.000143
0.0002576
0.0004932
0.0008278
0.0007291
0.0006093
0.0003787
0.0005476
0.0006652
0.000878
0.0009932
0.001703
0.00163
0.002115
0.003197
0.001544
0.00103
0.0007261
0.0007882
0.0002717
0.0001807
7.813e-05
7.585e-05
0.0001365
0.0002803
0.0001623
3.952e-05
1.389e-05
3.543e-06
2.393e-06
1.646e-06
2.341e-06
6.658e-06
0.000131
0.003488
0.07787
0.8912
0.9959
0.9999
1
1
1
1
1
1
1
1
1
1
1
1
1
1
1
1
1
1
1
1
1
1
1
1
1
1
1
1
1
1
1
1
1
1
1
1
1
1
1
1
1
1
1
1
1
1
1
1
1
1
1
1
1
1
1
1
1
1
1
1
1
1
1
1
1
1
1
1
1
1
1
1
1
1
1
1
1
1
1
1
1
1
1
1
1
1
1
1
1
1
1
1
1
1
1
1
1.396e-06
4.843e-06
3.702e-05
1.862e-05
6.537e-06
5.165e-06
1.169e-05
4.701e-05
4.767e-05
2.302e-05
1.258e-05
1.08e-05
1.064e-05
1.432e-05
3.163e-07
5.526e-09
3.743e-10
2.597e-11
5.655e-12
5.447e-12
2.68e-10
3.618e-08
7.22e-06
0.0001115
0.000577
0.0002472
0.0003358
0.0004505
0.0007368
0.0007414
0.0006735
0.0004652
0.00075
0.000916
0.0008822
0.0009927
0.001364
0.0007566
0.000472
0.0005339
0.0004991
0.0008573
0.001879
0.002976
0.001199
0.0004178
6.481e-05
2.809e-05
1.695e-05
2.068e-05
1.148e-05
4.87e-06
5.622e-06
7.895e-06
1.152e-05
2.73e-05
0.0001328
0.0009918
0.09613
0.9273
0.9961
0.9999
1
1
1
1
1
1
1
1
1
1
1
1
1
1
1
1
1
1
1
1
1
1
1
1
1
1
1
1
1
1
1
1
1
1
1
1
1
1
1
1
1
1
1
1
1
1
1
1
1
1
1
1
1
1
1
1
1
1
1
1
1
1
1
1
1
1
1
1
1
1
1
1
1
1
1
1
1
1
1
1
1
1
1
1
1
1
1
1
1
1
1
1
1
1
1
1
1
1
3.595e-06
1.174e-05
6.006e-05
3.403e-05
6.395e-06
7.64e-06
3.006e-05
0.0001887
0.0001715
5.977e-05
2.179e-05
1.351e-05
5.168e-06
5.127e-06
1.16e-07
3.167e-09
9.758e-10
5.705e-10
3.689e-10
8.457e-10
2.788e-08
1.45e-06
9.405e-05
0.0007619
0.002392
0.0009331
0.001011
0.0008693
0.0009206
0.0007048
0.0005969
0.0005626
0.001084
0.001432
0.001111
0.001061
0.001123
0.000576
0.0002926
0.0002244
0.0001671
0.0003032
0.0006751
0.001163
0.0006885
0.0003878
7.964e-05
1.822e-05
3.613e-06
1.532e-06
6.224e-07
6.224e-07
3.133e-06
2.656e-05
0.000175
0.002216
0.07332
0.8527
0.9955
0.9999
1
1
1
1
1
1
1
1
1
1
1
1
1
1
1
1
1
1
1
1
1
1
1
1
1
1
1
1
1
1
1
1
1
1
1
1
1
1
1
1
1
1
1
1
1
1
1
1
1
1
1
1
1
1
1
1
1
1
1
1
1
1
1
1
1
1
1
1
1
1
1
1
1
1
1
1
1
1
1
1
1
1
1
1
1
1
1
1
1
1
1
1
1
1
1
1
1
1
1
1
8.199e-06
2.268e-05
0.0001072
6.657e-05
1.301e-05
2.156e-05
5.933e-05
0.0003447
0.000295
8.296e-05
1.538e-05
1.002e-05
5.198e-06
4.099e-06
2.113e-07
2.062e-08
2.654e-08
8.072e-08
1.205e-07
3.063e-07
3.552e-06
3.876e-05
0.0004088
0.001316
0.002367
0.001119
0.001381
0.001152
0.001068
0.0006476
0.000718
0.001091
0.002459
0.003677
0.002307
0.001542
0.0008415
0.0003799
0.0001577
0.0001029
6.48e-05
0.0001132
0.0002045
0.0003148
0.0003594
0.0003249
0.0001105
2.994e-05
5.011e-06
8.558e-07
2.241e-07
9.116e-07
2.086e-05
0.0007741
0.0554
0.8894
0.996
0.9999
1
1
1
1
1
1
1
1
1
1
1
1
1
1
1
1
1
1
1
1
1
1
1
1
1
1
1
1
1
1
1
1
1
1
1
1
1
1
1
1
1
1
1
1
1
1
1
1
1
1
1
1
1
1
1
1
1
1
1
1
1
1
1
1
1
1
1
1
1
1
1
1
1
1
1
1
1
1
1
1
1
1
1
1
1
1
1
1
1
1
1
1
1
1
1
1
1
1
1
1
1
1
3.156e-05
7.902e-05
0.00026
0.0001021
2.353e-05
3.496e-05
4.875e-05
0.0003338
0.0005048
0.0001854
4.328e-05
4.652e-05
2.773e-05
2.009e-05
2.354e-06
4.127e-07
5.884e-07
2.673e-06
6.19e-06
3.017e-05
0.0001301
0.0002259
0.0003218
0.0002856
0.0002354
0.0002669
0.000911
0.0007811
0.0007315
0.0003829
0.0003249
0.0003909
0.001021
0.002035
0.001755
0.001312
0.0007428
0.0004134
0.0002784
0.0002176
0.0001192
0.0001056
8.501e-05
6.856e-05
9.313e-05
0.0001343
0.0001118
6.171e-05
2e-05
3.779e-06
4.735e-06
3.517e-05
0.006797
0.7804
0.9934
0.9998
1
1
1
1
1
1
1
1
1
1
1
1
1
1
1
1
1
1
1
1
1
1
1
1
1
1
1
1
1
1
1
1
1
1
1
1
1
1
1
1
1
1
1
1
1
1
1
1
1
1
1
1
1
1
1
1
1
1
1
1
1
1
1
1
1
1
1
1
1
1
1
1
1
1
1
1
1
1
1
1
1
1
1
1
1
1
1
1
1
1
1
1
1
1
1
1
1
1
1
1
1
1
1
1
5.54e-05
0.0001267
0.0003624
0.0001272
3.411e-05
1.981e-05
1.337e-05
0.0001072
0.000375
0.0003582
0.0001249
0.0002323
0.0001488
0.0001062
2.919e-05
9.866e-06
1.418e-05
6.062e-05
9.293e-05
0.000304
0.0006036
0.0004
0.0002074
0.0001026
8.13e-05
0.0001422
0.0009973
0.000818
0.0007771
0.0004476
0.0003318
0.0002496
0.0004816
0.00104
0.001433
0.001644
0.001332
0.001012
0.0009674
0.0007175
0.0002313
9.836e-05
3.775e-05
1.793e-05
2.194e-05
5.414e-05
8.854e-05
0.0001369
0.0002478
0.0002671
0.00207
0.1683
0.9768
0.9995
1
1
1
1
1
1
1
1
1
1
1
1
1
1
1
1
1
1
1
1
1
1
1
1
1
1
1
1
1
1
1
0.9999
0.9994
0.9983
0.9976
0.9977
0.9985
0.9986
0.9978
0.9978
0.9984
0.9989
0.9998
1
1
1
1
1
1
1
1
1
1
1
1
1
1
1
1
1
1
1
1
1
1
1
1
1
1
1
1
1
1
1
1
1
1
1
1
1
1
1
1
1
1
1
1
1
1
1
1
1
1
1
1
1
1
1
1
1
1
1
1
1
1
1
9.504e-05
0.0001922
0.0005499
0.000114
3.128e-05
5.995e-06
2.89e-06
3.018e-05
0.0004158
0.001186
0.0009526
0.001708
0.0009488
0.0006308
0.0002719
0.0001722
0.0001177
0.0002936
0.0002555
0.0005878
0.0008003
0.0003931
0.0001956
8.448e-05
0.0001432
0.0003651
0.0025
0.001944
0.001412
0.0007353
0.0004844
0.0002158
0.0002476
0.0004713
0.0009627
0.00192
0.002944
0.002326
0.00254
0.001856
0.0005507
0.0001749
3.876e-05
1.309e-05
1.582e-05
4.545e-05
0.0001255
0.000549
0.005357
0.0666
0.8961
0.9974
1
1
1
1
1
1
1
1
1
1
1
1
1
1
1
1
1
1
1
1
1
1
1
1
1
1
1
1
0.9998
0.9987
0.998
0.9956
0.9894
0.9428
0.5988
0.05769
0.01624
0.01005
0.0102
0.007832
0.008361
0.01323
0.03489
0.08864
0.7627
0.9602
0.9925
0.9975
0.9994
0.9999
1
1
1
1
1
1
1
1
1
1
1
1
1
1
1
1
1
1
1
1
1
1
1
1
1
1
1
1
1
1
1
1
1
1
1
1
1
1
1
1
1
1
1
1
1
1
1
1
1
1
1
1
1
1
1
1
1
1
8.636e-05
0.0001363
0.0004522
0.0001413
0.0001077
1.363e-05
5.745e-06
1.937e-05
0.0002579
0.0005053
0.0007664
0.001437
0.001363
0.0009433
0.0004635
0.0004457
0.0003012
0.0005099
0.0006743
0.0009071
0.000855
0.0004682
0.0003124
0.0001742
0.0001828
0.0002999
0.001424
0.00142
0.001635
0.001306
0.000921
0.0002839
0.0002108
0.0002465
0.0006094
0.001631
0.003243
0.002175
0.002165
0.001537
0.0005012
0.0001578
4.054e-05
2.692e-05
4.869e-05
0.0002241
0.001236
0.02488
0.758
0.9876
0.9998
1
1
1
1
1
1
1
1
1
1
1
1
1
1
1
1
1
1
1
1
1
1
1
1
1
1
0.9996
0.9959
0.9749
0.8083
0.09882
0.02374
0.01013
0.003454
0.000865
0.0001514
5.726e-05
4.81e-05
5.536e-05
4.354e-05
2.942e-05
5.195e-05
9.788e-05
0.0001669
0.0003193
0.0009115
0.002079
0.007957
0.02684
0.1598
0.8232
0.9806
0.9984
0.9998
1
1
1
1
1
1
1
1
1
1
1
1
1
1
1
1
1
1
1
1
1
1
1
1
1
1
1
1
1
1
1
1
1
1
1
1
1
1
1
1
1
1
1
1
1
1
1
1
1
1
1
1
1
1
1
9.313e-05
9.318e-05
0.0003313
0.0001786
0.0002928
2.978e-05
1.739e-05
1.874e-05
0.0001164
0.0002288
0.0005243
0.0008742
0.00136
0.001233
0.0004349
0.0003565
0.0003032
0.0005975
0.001554
0.001925
0.001473
0.0009271
0.0008331
0.0006066
0.0005245
0.00046
0.001031
0.00109
0.001478
0.001653
0.001242
0.0003202
0.0002478
0.000232
0.0005571
0.001481
0.003197
0.001961
0.00158
0.0007901
0.0002505
0.0001105
5.915e-05
7.364e-05
0.0003158
0.00295
0.08704
0.929
0.9985
1
1
1
1
1
1
1
1
1
1
1
1
1
1
1
1
1
1
1
1
1
1
1
1
1
0.9994
0.9945
0.9563
0.6835
0.06776
0.009246
0.0005801
0.0001351
8.943e-05
4.894e-05
1.553e-05
5.936e-06
1.086e-06
7.211e-07
1.415e-06
2.105e-06
1.736e-06
1.416e-06
3.225e-06
7.652e-06
9.941e-06
1.525e-05
1.623e-05
1.615e-05
3.94e-05
8.525e-05
0.0001293
0.0006494
0.006035
0.08126
0.7412
0.9581
0.9965
0.9997
1
1
1
1
1
1
1
1
1
1
1
1
1
1
1
1
1
1
1
1
1
1
1
1
1
1
1
1
1
1
1
1
1
1
1
1
1
1
1
1
1
1
1
1
1
1
1
0.9999
0.9992
0.9965
0.9905
0.9558
0.0001399
7.091e-05
0.0002724
0.0001448
0.0003364
4.196e-05
3.172e-05
1.434e-05
3.963e-05
8.744e-05
0.0002501
0.0005489
0.001501
0.001807
0.0004393
0.0002763
0.0003526
0.001069
0.001307
0.0007444
0.0002923
0.0002698
0.000704
0.001768
0.001498
0.0006302
0.0005763
0.0007345
0.001202
0.001519
0.001394
0.0005933
0.0005463
0.0003618
0.0004468
0.0005252
0.0006687
0.0003993
0.0004438
0.0002614
0.0001145
8.583e-05
0.0001326
0.0006093
0.01456
0.5939
0.9827
0.9997
1
1
1
1
1
1
1
1
1
1
1
1
1
1
1
1
1
1
1
1
1
1
1
0.9999
0.998
0.9623
0.6272
0.05084
0.005601
0.0006353
8.46e-05
2.745e-05
4.702e-06
2.635e-06
2.448e-06
2.003e-06
5.596e-07
4.468e-07
1.823e-07
2.296e-07
4.696e-07
8.585e-07
8.247e-07
7.805e-07
1.73e-06
3.84e-06
2.831e-06
2.055e-06
9.965e-07
7.139e-07
1.288e-06
1.799e-06
1.672e-06
4.279e-06
1.883e-05
0.0001368
0.001153
0.0106
0.08561
0.717
0.9733
0.9991
1
1
1
1
1
1
1
1
1
1
1
1
1
1
1
1
1
1
1
1
1
1
1
1
1
1
1
1
1
1
1
1
1
1
1
1
1
1
1
1
1
0.9998
0.9991
0.9954
0.9683
0.7384
0.1005
0.02216
0.01697
0.001051
0.0001748
6.444e-05
0.0003257
0.0001564
0.0002954
4.621e-05
3.223e-05
1.581e-05
5.229e-05
9.841e-05
0.0001381
0.0002515
0.0009379
0.001618
0.0003283
0.0001906
0.0001902
0.0005743
0.0005984
0.0004683
0.000113
0.000103
0.000263
0.001561
0.001687
0.0008228
0.000681