/*--------------------------------*- C++ -*----------------------------------*\
| =========                 |                                                 |
| \\      /  F ield         | OpenFOAM: The Open Source CFD Toolbox           |
|  \\    /   O peration     | Version:  5.x                                   |
|   \\  /    A nd           | Web:      www.OpenFOAM.org                      |
|    \\/     M anipulation  |                                                 |
\*---------------------------------------------------------------------------*/
FoamFile
{
    version     2.0;
    format      ascii;
    class       volScalarField;
    location    "60";
    object      gamma;
}
// * * * * * * * * * * * * * * * * * * * * * * * * * * * * * * * * * * * * * //

dimensions      [0 0 0 0 0 0 0];

internalField   nonuniform List<scalar> 
80000
(
1
1
1
1
1
1
1
1
1
1
1
1
1
1
1
1
1
1
1
1
1
1
1
1
1
1
1
1
1
1
1
1
1
1
1
1
1
1
1
1
1
1
1
1
1
1
1
1
1
1
1
1
1
1
1
1
1
1
1
1
1
1
1
1
1
1
1
1
1
1
1
1
1
1
1
1
1
1
1
1
1
1
1
1
1
1
1
1
1
1
1
1
1
1
1
1
1
1
1
1
1
1
1
1
1
1
1
1
1
1
1
1
1
1
1
1
1
1
1
1
1
1
1
1
1
1
1
1
1
1
1
1
1
1
1
1
1
1
1
1
1
1
1
1
1
1
1
1
1
1
1
1
1
1
1
1
1
1
1
1
1
1
1
1
1
1
1
1
1
1
1
1
1
1
1
1
1
1
1
1
1
1
1
1
1
1
1
1
1
1
1
1
1
1
1
1
1
1
1
1
1
1
1
1
1
1
1
1
1
1
1
1
1
1
1
1
1
1
1
1
1
1
1
1
1
1
1
1
1
1
1
1
1
1
1
1
1
1
1
1
1
1
1
0.99999
0.99999
0.99999
0.99999
0.99999
0.99999
0.99999
0.99999
0.99999
0.99999
0.99998
0.99997
0.99995
0.99991
0.99987
0.99983
0.99969
0.99897
0.99231
0.90158
0.087154
0.0019576
0.00010325
1.3396e-05
2.5861e-06
8.5002e-07
4.6891e-07
5.5471e-07
1.1787e-06
3.5922e-06
9.856e-06
2.0756e-05
2.6994e-05
2.6084e-05
2.6648e-05
4.0302e-05
7.4298e-05
0.00016391
0.00026238
0.00036476
0.00040892
0.00028389
0.00016306
7.5603e-05
4.7199e-05
4.2376e-05
5.803e-05
6.2446e-05
6.1506e-05
5.9557e-05
5.7785e-05
5.6151e-05
5.5084e-05
5.4583e-05
5.4291e-05
5.4227e-05
5.3787e-05
5.3094e-05
5.2179e-05
5.1197e-05
5.0419e-05
4.9861e-05
4.9459e-05
4.9295e-05
4.903e-05
4.8142e-05
4.6537e-05
4.4519e-05
4.3911e-05
4.8631e-05
6.7419e-05
9.0008e-05
5.4174e-05
2.3635e-05
8.0209e-06
4.0505e-06
3.325e-06
4.7002e-06
5.0564e-06
4.9054e-06
4.709e-06
4.5862e-06
4.5151e-06
4.4518e-06
4.386e-06
4.3193e-06
4.2537e-06
4.19e-06
4.128e-06
4.0675e-06
4.0085e-06
3.9508e-06
3.8944e-06
3.8392e-06
3.7853e-06
3.7326e-06
3.681e-06
3.6307e-06
3.5815e-06
3.5335e-06
3.4866e-06
3.441e-06
3.3967e-06
3.3536e-06
3.3117e-06
3.2712e-06
3.232e-06
3.1942e-06
3.1579e-06
3.1229e-06
3.0895e-06
3.0575e-06
3.0271e-06
2.9982e-06
2.9709e-06
2.9451e-06
2.921e-06
2.8984e-06
2.8774e-06
2.858e-06
2.8401e-06
2.8238e-06
2.8089e-06
2.7956e-06
2.7836e-06
2.7729e-06
2.7636e-06
2.7555e-06
2.7485e-06
2.7426e-06
2.7377e-06
2.7338e-06
2.7306e-06
2.7282e-06
2.7263e-06
2.7251e-06
2.7243e-06
2.7239e-06
2.7237e-06
2.7238e-06
2.724e-06
2.7243e-06
2.7246e-06
2.7252e-06
2.7261e-06
2.7265e-06
2.7231e-06
2.7129e-06
2.7103e-06
2.7495e-06
2.859e-06
2.9083e-06
2.4013e-06
1.9781e-06
2.2668e-06
2.7032e-06
3.9471e-06
1
1
1
1
1
1
1
1
1
1
1
1
1
1
1
1
1
1
1
1
1
1
1
1
1
1
1
1
1
1
1
1
1
1
1
1
1
1
1
1
1
1
1
1
1
1
1
1
1
1
1
1
1
1
1
1
1
1
1
1
1
1
1
1
1
1
1
1
1
1
1
1
1
1
1
1
1
1
1
1
1
1
1
1
1
1
1
1
1
1
1
1
1
1
1
1
1
1
1
1
1
1
1
1
1
1
1
1
1
1
1
1
1
1
1
1
1
1
1
1
1
1
1
1
1
1
1
1
1
1
1
1
1
1
1
1
1
1
1
1
1
1
1
1
1
1
1
1
1
1
1
1
1
1
1
1
1
1
1
1
1
1
1
1
1
1
1
1
1
1
1
1
1
1
1
1
1
1
1
1
1
1
1
1
1
1
1
1
1
1
1
1
1
1
1
1
1
1
1
1
1
1
1
1
1
1
1
1
1
1
1
1
1
1
1
1
1
1
1
1
1
1
1
1
1
1
1
1
1
1
1
1
1
1
1
1
1
1
1
1
1
1
1
1
1
1
1
0.99999
0.99999
0.99999
0.99999
0.99999
0.99999
0.99999
0.99998
0.99997
0.99995
0.99992
0.99988
0.99977
0.9994
0.99752
0.98578
0.90643
0.46022
0.037947
0.0041423
0.00042678
5.4005e-05
9.2929e-06
3.1879e-06
2.0712e-06
2.3509e-06
3.2385e-06
4.621e-06
6.5582e-06
1.0278e-05
1.9268e-05
4.5169e-05
0.00011146
0.00019538
0.00027286
0.00030691
0.00026867
0.00016189
8.6948e-05
4.4207e-05
3.3339e-05
3.4229e-05
4.4901e-05
4.758e-05
4.6609e-05
4.4931e-05
4.3567e-05
4.2546e-05
4.1957e-05
4.1676e-05
4.1529e-05
4.1155e-05
4.0619e-05
3.9983e-05
3.926e-05
3.8548e-05
3.804e-05
3.7657e-05
3.7425e-05
3.7166e-05
3.6778e-05
3.5891e-05
3.4599e-05
3.3379e-05
3.4096e-05
4.0281e-05
4.8041e-05
4.5804e-05
2.3359e-05
9.7058e-06
3.823e-06
2.5203e-06
2.4744e-06
3.3377e-06
3.5213e-06
3.4022e-06
3.2683e-06
3.1856e-06
3.1361e-06
3.0915e-06
3.0453e-06
2.9986e-06
2.9529e-06
2.9086e-06
2.8656e-06
2.8236e-06
2.7826e-06
2.7426e-06
2.7035e-06
2.6653e-06
2.6279e-06
2.5914e-06
2.5556e-06
2.5207e-06
2.4865e-06
2.4532e-06
2.4207e-06
2.389e-06
2.3582e-06
2.3282e-06
2.2991e-06
2.2708e-06
2.2435e-06
2.2172e-06
2.1917e-06
2.1673e-06
2.1439e-06
2.1215e-06
2.1001e-06
2.0798e-06
2.0606e-06
2.0424e-06
2.0253e-06
2.0093e-06
1.9944e-06
1.9806e-06
1.9678e-06
1.956e-06
1.9453e-06
1.9356e-06
1.9268e-06
1.919e-06
1.912e-06
1.9059e-06
1.9006e-06
1.8961e-06
1.8922e-06
1.889e-06
1.8863e-06
1.8842e-06
1.8825e-06
1.8812e-06
1.8803e-06
1.8796e-06
1.8792e-06
1.879e-06
1.8788e-06
1.8788e-06
1.8789e-06
1.8792e-06
1.8797e-06
1.8799e-06
1.8775e-06
1.8702e-06
1.8684e-06
1.8967e-06
1.9747e-06
2.009e-06
1.6464e-06
1.3494e-06
1.5616e-06
1.8609e-06
2.7032e-06
1
1
1
1
1
1
1
1
1
1
1
1
1
1
1
1
1
1
1
1
1
1
1
1
1
1
1
1
1
1
1
1
1
1
1
1
1
1
1
1
1
1
1
1
1
1
1
1
1
1
1
1
1
1
1
1
1
1
1
1
1
1
1
1
1
1
1
1
1
1
1
1
1
1
1
1
1
1
1
1
1
1
1
1
1
1
1
1
1
1
1
1
1
1
1
1
1
1
1
1
1
1
1
1
1
1
1
1
1
1
1
1
1
1
1
1
1
1
1
1
1
1
1
1
1
1
1
1
1
1
1
1
1
1
1
1
1
1
1
1
1
1
1
1
1
1
1
1
1
1
1
1
1
1
1
1
1
1
1
1
1
1
1
1
1
1
1
1
1
1
1
1
1
1
1
1
1
1
1
1
1
1
1
1
1
1
1
1
1
1
1
1
1
1
1
1
1
1
1
1
1
1
1
1
1
1
1
1
1
1
1
1
1
1
1
1
1
1
1
1
1
1
1
1
1
1
1
1
1
1
1
1
1
1
1
1
1
1
1
1
1
1
1
1
1
1
0.99999
0.99999
0.99999
0.99999
0.99999
0.99999
0.99999
0.99999
0.99999
0.99998
0.99997
0.99996
0.99993
0.9999
0.99981
0.99953
0.99839
0.99347
0.97551
0.91718
0.74254
0.16949
0.014022
0.0010153
0.00011238
2.0285e-05
6.2252e-06
2.6805e-06
1.8278e-06
2.1266e-06
4.2104e-06
1.2497e-05
4.6453e-05
0.00012336
0.00022467
0.00028011
0.0002502
0.00017318
9.3027e-05
4.6587e-05
3.2034e-05
2.9308e-05
3.3075e-05
4.0659e-05
4.2112e-05
4.086e-05
3.9348e-05
3.8249e-05
3.7546e-05
3.717e-05
3.6992e-05
3.6641e-05
3.615e-05
3.5568e-05
3.4938e-05
3.4336e-05
3.3782e-05
3.3396e-05
3.3078e-05
3.2846e-05
3.2521e-05
3.2015e-05
3.1051e-05
2.99e-05
2.9406e-05
3.168e-05
4.082e-05
4.1129e-05
2.9285e-05
1.2705e-05
4.5909e-06
2.3009e-06
2.0208e-06
2.2827e-06
2.8712e-06
2.9501e-06
2.8396e-06
2.7347e-06
2.6704e-06
2.6296e-06
2.5919e-06
2.5531e-06
2.5142e-06
2.4763e-06
2.4395e-06
2.4038e-06
2.3691e-06
2.3352e-06
2.3021e-06
2.2697e-06
2.2381e-06
2.2072e-06
2.177e-06
2.1474e-06
2.1185e-06
2.0902e-06
2.0626e-06
2.0357e-06
2.0094e-06
1.9838e-06
1.9589e-06
1.9347e-06
1.9112e-06
1.8884e-06
1.8664e-06
1.8452e-06
1.8247e-06
1.8051e-06
1.7863e-06
1.7683e-06
1.7512e-06
1.735e-06
1.7196e-06
1.7051e-06
1.6915e-06
1.6787e-06
1.6669e-06
1.6559e-06
1.6457e-06
1.6364e-06
1.6279e-06
1.6201e-06
1.6132e-06
1.6069e-06
1.6014e-06
1.5965e-06
1.5922e-06
1.5885e-06
1.5853e-06
1.5827e-06
1.5804e-06
1.5786e-06
1.5771e-06
1.5759e-06
1.575e-06
1.5743e-06
1.5738e-06
1.5734e-06
1.5732e-06
1.573e-06
1.5731e-06
1.5734e-06
1.5735e-06
1.5714e-06
1.5652e-06
1.5638e-06
1.5879e-06
1.6543e-06
1.6835e-06
1.3753e-06
1.1226e-06
1.3052e-06
1.5616e-06
2.2668e-06
1
1
1
1
1
1
1
1
1
1
1
1
1
1
1
1
1
1
1
1
1
1
1
1
1
1
1
1
1
1
1
1
1
1
1
1
1
1
1
1
1
1
1
1
1
1
1
1
1
1
1
1
1
1
1
1
1
1
1
1
1
1
1
1
1
1
1
1
1
1
1
1
1
1
1
1
1
1
1
1
1
1
1
1
1
1
1
1
1
1
1
1
1
1
1
1
1
1
1
1
1
1
1
1
1
1
1
1
1
1
1
1
1
1
1
1
1
1
1
1
1
1
1
1
1
1
1
1
1
1
1
1
1
1
1
1
1
1
1
1
1
1
1
1
1
1
1
1
1
1
1
1
1
1
1
1
1
1
1
1
1
1
1
1
1
1
1
1
1
1
1
1
1
1
1
1
1
1
1
1
1
1
1
1
1
1
1
1
1
1
1
1
1
1
1
1
1
1
1
1
1
1
1
1
1
1
1
1
1
1
1
1
1
1
1
1
1
1
1
1
1
1
1
1
1
1
1
1
1
1
1
1
1
1
1
1
1
1
1
1
1
1
1
1
0.99999
0.99999
0.99999
0.99999
0.99999
0.99999
0.99999
0.99999
0.99999
0.99999
0.99999
0.99999
0.99999
0.99998
0.99997
0.99996
0.99995
0.99994
0.99991
0.99985
0.99969
0.99924
0.99792
0.99139
0.94559
0.54927
0.021039
0.00092856
6.739e-05
8.58e-06
2.1549e-06
1.3281e-06
2.1025e-06
7.3051e-06
2.9431e-05
9.5979e-05
0.00018734
0.00021053
0.00015649
8.916e-05
4.391e-05
2.9294e-05
2.6017e-05
2.8546e-05
3.4212e-05
3.828e-05
3.8186e-05
3.6646e-05
3.5293e-05
3.4424e-05
3.3987e-05
3.3829e-05
3.3584e-05
3.3106e-05
3.2524e-05
3.188e-05
3.1293e-05
3.0822e-05
3.0404e-05
3.0117e-05
2.9871e-05
2.9553e-05
2.9158e-05
2.8504e-05
2.7431e-05
2.6435e-05
2.6888e-05
3.1484e-05
3.7974e-05
2.8267e-05
1.39e-05
4.8038e-06
2.1698e-06
1.5014e-06
1.784e-06
2.2512e-06
2.5601e-06
2.5378e-06
2.4342e-06
2.3545e-06
2.3056e-06
2.2713e-06
2.2384e-06
2.2047e-06
2.1713e-06
2.1389e-06
2.1075e-06
2.077e-06
2.0474e-06
2.0186e-06
1.9904e-06
1.963e-06
1.9361e-06
1.9098e-06
1.8842e-06
1.859e-06
1.8345e-06
1.8104e-06
1.7869e-06
1.764e-06
1.7416e-06
1.7198e-06
1.6985e-06
1.6778e-06
1.6577e-06
1.6382e-06
1.6193e-06
1.601e-06
1.5834e-06
1.5664e-06
1.5502e-06
1.5346e-06
1.5197e-06
1.5055e-06
1.4921e-06
1.4793e-06
1.4673e-06
1.456e-06
1.4454e-06
1.4356e-06
1.4264e-06
1.418e-06
1.4102e-06
1.403e-06
1.3965e-06
1.3906e-06
1.3853e-06
1.3805e-06
1.3763e-06
1.3725e-06
1.3693e-06
1.3664e-06
1.3639e-06
1.3618e-06
1.36e-06
1.3585e-06
1.3572e-06
1.3562e-06
1.3554e-06
1.3547e-06
1.3542e-06
1.3538e-06
1.3537e-06
1.3538e-06
1.3538e-06
1.3519e-06
1.3465e-06
1.3452e-06
1.3664e-06
1.4244e-06
1.4496e-06
1.1804e-06
9.6059e-07
1.1226e-06
1.3494e-06
1.9781e-06
1
1
1
1
1
1
1
1
1
1
1
1
1
1
1
1
1
1
1
1
1
1
1
1
1
1
1
1
1
1
1
1
1
1
1
1
1
1
1
1
1
1
1
1
1
1
1
1
1
1
1
1
1
1
1
1
1
1
1
1
1
1
1
1
1
1
1
1
1
1
1
1
1
1
1
1
1
1
1
1
1
1
1
1
1
1
1
1
1
1
1
1
1
1
1
1
1
1
1
1
1
1
1
1
1
1
1
1
1
1
1
1
1
1
1
1
1
1
1
1
1
1
1
1
1
1
1
1
1
1
1
1
1
1
1
1
1
1
1
1
1
1
1
1
1
1
1
1
1
1
1
1
1
1
1
1
1
1
1
1
1
1
1
1
1
1
1
1
1
1
1
1
1
1
1
1
1
1
1
1
1
1
1
1
1
1
1
1
1
1
1
1
1
1
1
1
1
1
1
1
1
1
1
1
1
1
1
1
1
1
1
1
1
1
1
1
1
1
1
1
1
1
1
1
1
1
1
0.99999
0.99999
0.99999
0.99999
0.99999
0.99999
0.99999
0.99999
0.99999
0.99999
0.99999
0.99999
0.99999
0.99999
0.99999
0.99999
0.99999
0.99999
0.99999
0.99999
0.99999
0.99999
0.99999
0.99999
0.99999
0.99999
0.99999
0.99999
0.99999
0.99999
0.99999
0.99998
0.99998
0.99998
0.99999
0.99999
0.99998
0.99998
0.99997
0.99995
0.99988
0.9994
0.99542
0.95938
0.60344
0.01936
0.0007451
4.4285e-05
6.3297e-06
3.9083e-06
6.1298e-06
1.5892e-05
3.9644e-05
6.8574e-05
7.7834e-05
6.4267e-05
3.9187e-05
2.9458e-05
2.7913e-05
3.1746e-05
3.9344e-05
4.6207e-05
4.7121e-05
4.5385e-05
4.3133e-05
4.1594e-05
4.073e-05
4.042e-05
4.0118e-05
3.9708e-05
3.8941e-05
3.8144e-05
3.7432e-05
3.6888e-05
3.6435e-05
3.6037e-05
3.5705e-05
3.5279e-05
3.482e-05
3.4289e-05
3.3365e-05
3.1981e-05
3.0986e-05
3.2862e-05
4.2071e-05
4.2386e-05
2.3363e-05
8.871e-06
3.031e-06
1.6245e-06
1.6474e-06
2.4463e-06
3.11e-06
3.2037e-06
3.0765e-06
2.9486e-06
2.8675e-06
2.8163e-06
2.7755e-06
2.7351e-06
2.6942e-06
2.6541e-06
2.6151e-06
2.5774e-06
2.5409e-06
2.5054e-06
2.4708e-06
2.4371e-06
2.4042e-06
2.372e-06
2.3406e-06
2.3099e-06
2.2799e-06
2.2505e-06
2.2218e-06
2.1937e-06
2.1662e-06
2.1394e-06
2.1132e-06
2.0877e-06
2.0628e-06
2.0387e-06
2.0152e-06
1.9924e-06
1.9704e-06
1.9491e-06
1.9285e-06
1.9088e-06
1.8898e-06
1.8716e-06
1.8543e-06
1.8378e-06
1.8221e-06
1.8073e-06
1.7932e-06
1.7801e-06
1.7677e-06
1.7562e-06
1.7454e-06
1.7354e-06
1.7262e-06
1.7178e-06
1.71e-06
1.703e-06
1.6966e-06
1.6908e-06
1.6856e-06
1.6809e-06
1.6768e-06
1.6731e-06
1.6699e-06
1.6671e-06
1.6647e-06
1.6626e-06
1.6609e-06
1.6594e-06
1.6582e-06
1.6572e-06
1.6564e-06
1.6559e-06
1.6559e-06
1.6557e-06
1.6532e-06
1.6466e-06
1.6451e-06
1.6706e-06
1.7404e-06
1.7709e-06
1.4467e-06
1.1804e-06
1.3753e-06
1.6464e-06
2.4013e-06
1
1
1
1
1
1
1
1
1
1
1
1
1
1
1
1
1
1
1
1
1
1
1
1
1
1
1
1
1
1
1
1
1
1
1
1
1
1
1
1
1
1
1
1
1
1
1
1
1
1
1
1
1
1
1
1
1
1
1
1
1
1
1
1
1
1
1
1
1
1
1
1
1
1
1
1
1
1
1
1
1
1
1
1
1
1
1
1
1
1
0.99999
0.99999
0.99999
0.99999
0.99999
0.99999
1
1
1
1
1
1
1
1
1
1
1
1
1
1
1
1
1
1
1
1
1
1
1
1
1
1
1
1
1
1
1
1
1
1
1
1
1
0.99999
0.99999
0.99999
0.99999
0.99999
0.99999
0.99999
0.99999
0.99999
0.99999
0.99999
0.99999
0.99999
1
1
1
1
1
1
1
1
1
1
1
1
1
1
1
1
1
1
1
1
1
1
1
1
1
1
1
1
1
1
1
1
1
1
1
1
1
1
1
1
1
1
1
1
1
1
1
1
1
1
1
1
1
1
1
1
1
1
1
1
1
1
1
1
1
1
1
1
0.99999
0.99999
0.99999
0.99999
0.99999
0.99999
0.99999
0.99999
0.99999
0.99999
0.99999
0.99999
0.99999
0.99999
0.99999
0.99999
0.99999
0.99999
0.99999
0.99999
0.99999
0.99999
0.99999
0.99999
0.99999
0.99999
0.99999
0.99999
0.99999
0.99999
0.99999
0.99999
0.99999
0.99999
0.99999
0.99999
0.99998
0.99998
0.99998
0.99998
0.99998
0.99999
0.99999
0.99999
0.99999
0.99999
0.99999
0.99999
0.99999
0.99999
0.99999
0.99999
0.99999
0.99999
0.99997
0.9999
0.99947
0.9959
0.95538
0.49385
0.010088
0.00035229
4.2139e-05
1.5704e-05
1.298e-05
1.2923e-05
1.3348e-05
1.3105e-05
1.2338e-05
1.4052e-05
2.0142e-05
3.1097e-05
4.5286e-05
5.7152e-05
5.9541e-05
5.7484e-05
5.4321e-05
5.1378e-05
4.963e-05
4.8679e-05
4.8183e-05
4.7633e-05
4.6986e-05
4.5879e-05
4.4872e-05
4.4167e-05
4.3632e-05
4.3203e-05
4.2855e-05
4.2398e-05
4.1788e-05
4.1203e-05
4.0553e-05
3.9353e-05
3.7638e-05
3.6741e-05
4.042e-05
5.5696e-05
4.3654e-05
1.8847e-05
6.0424e-06
2.614e-06
1.7382e-06
2.517e-06
3.804e-06
4.1751e-06
4.0142e-06
3.7777e-06
3.6209e-06
3.5314e-06
3.4709e-06
3.4181e-06
3.3663e-06
3.3154e-06
3.266e-06
3.2182e-06
3.1719e-06
3.127e-06
3.0832e-06
3.0406e-06
2.9991e-06
2.9586e-06
2.9191e-06
2.8806e-06
2.8429e-06
2.8061e-06
2.7701e-06
2.7349e-06
2.7005e-06
2.6668e-06
2.634e-06
2.6019e-06
2.5706e-06
2.5402e-06
2.5105e-06
2.4817e-06
2.4537e-06
2.4266e-06
2.4004e-06
2.3751e-06
2.3507e-06
2.3273e-06
2.3048e-06
2.2833e-06
2.2627e-06
2.2432e-06
2.2246e-06
2.207e-06
2.1904e-06
2.1748e-06
2.1601e-06
2.1464e-06
2.1336e-06
2.1217e-06
2.1107e-06
2.1005e-06
2.0912e-06
2.0827e-06
2.0748e-06
2.0678e-06
2.0613e-06
2.0555e-06
2.0504e-06
2.0457e-06
2.0416e-06
2.038e-06
2.0349e-06
2.0321e-06
2.0298e-06
2.0278e-06
2.0261e-06
2.0248e-06
2.0239e-06
2.0235e-06
2.023e-06
2.0199e-06
2.0117e-06
2.0097e-06
2.0403e-06
2.1243e-06
2.161e-06
1.7709e-06
1.4496e-06
1.6835e-06
2.009e-06
2.9084e-06
1
1
1
1
1
1
1
1
1
1
1
1
1
1
1
1
1
1
1
1
1
1
1
1
1
1
1
1
1
1
1
1
1
1
1
1
1
1
1
1
1
1
1
1
1
1
1
1
1
1
1
1
1
1
1
1
1
1
1
1
1
1
1
1
1
1
1
1
1
1
1
1
1
1
1
1
1
1
1
1
1
1
1
1
1
1
0.99999
0.99999
0.99999
0.99999
0.99999
0.99999
0.99999
0.99999
0.99999
0.99999
1
1
1
1
1
1
0.99999
0.99999
0.99999
0.99999
0.99999
0.99999
0.99999
0.99999
0.99999
0.99999
0.99999
0.99999
0.99999
0.99999
0.99999
0.99999
0.99999
0.99999
0.99999
0.99999
0.99999
0.99999
0.99999
0.99999
0.99999
0.99999
0.99999
0.99999
0.99999
0.99999
0.99999
0.99999
0.99999
0.99999
0.99999
0.99999
0.99999
0.99999
0.99999
0.99999
0.99999
0.99999
0.99999
0.99999
0.99999
0.99999
0.99999
0.99999
0.99999
0.99999
0.99999
0.99999
0.99999
0.99999
0.99999
0.99999
0.99999
0.99999
0.99999
0.99999
1
1
1
1
1
1
1
1
1
1
1
1
1
1
1
1
1
1
1
1
1
1
1
1
1
1
1
1
1
1
1
1
1
1
1
1
1
1
1
1
1
1
1
1
1
1
1
0.99999
0.99999
0.99999
0.99999
0.99999
0.99999
0.99999
0.99999
0.99999
0.99999
0.99999
0.99999
0.99999
0.99999
0.99999
0.99999
0.99999
0.99999
0.99999
0.99999
0.99999
0.99999
0.99999
0.99999
0.99999
0.99999
0.99999
0.99999
0.99999
0.99999
0.99999
0.99999
0.99999
0.99999
0.99999
0.99999
0.99999
0.99998
0.99998
0.99998
0.99998
0.99998
0.99998
0.99998
0.99998
0.99998
0.99998
0.99999
0.99999
0.99999
0.99999
0.99999
0.99999
0.99999
0.99999
0.99999
0.99999
1
1
1
0.99999
0.99998
0.99989
0.99925
0.99249
0.90793
0.12901
0.0040017
0.00027032
4.1584e-05
1.0074e-05
4.0838e-06
2.0352e-06
1.9855e-06
3.2976e-06
7.9395e-06
1.9739e-05
3.7379e-05
5.1381e-05
5.6984e-05
5.727e-05
5.5237e-05
5.2777e-05
5.1111e-05
4.9842e-05
4.8977e-05
4.8165e-05
4.7368e-05
4.6185e-05
4.5221e-05
4.4533e-05
4.4029e-05
4.3679e-05
4.3227e-05
4.2671e-05
4.1996e-05
4.1431e-05
4.0841e-05
3.964e-05
3.7898e-05
3.7229e-05
4.1812e-05
5.9763e-05
3.6092e-05
1.4388e-05
4.5579e-06
2.1864e-06
1.6547e-06
3.0345e-06
4.1673e-06
4.3354e-06
4.0885e-06
3.8363e-06
3.6794e-06
3.5827e-06
3.5093e-06
3.4444e-06
3.3845e-06
3.329e-06
3.2771e-06
3.2278e-06
3.1801e-06
3.1338e-06
3.0887e-06
3.0446e-06
3.0018e-06
2.9599e-06
2.9192e-06
2.8794e-06
2.8407e-06
2.8028e-06
2.7658e-06
2.7297e-06
2.6944e-06
2.6599e-06
2.6263e-06
2.5935e-06
2.5615e-06
2.5303e-06
2.5e-06
2.4705e-06
2.4419e-06
2.4142e-06
2.3874e-06
2.3615e-06
2.3365e-06
2.3125e-06
2.2894e-06
2.2673e-06
2.2462e-06
2.226e-06
2.2069e-06
2.1887e-06
2.1715e-06
2.1552e-06
2.1399e-06
2.1255e-06
2.1121e-06
2.0996e-06
2.0879e-06
2.0771e-06
2.067e-06
2.0578e-06
2.0493e-06
2.0416e-06
2.0345e-06
2.0281e-06
2.0222e-06
2.017e-06
2.0123e-06
2.0081e-06
2.0044e-06
2.0011e-06
1.9983e-06
1.9959e-06
1.9938e-06
1.992e-06
1.9908e-06
1.9901e-06
1.9893e-06
1.986e-06
1.9778e-06
1.9756e-06
2.0056e-06
2.0882e-06
2.1243e-06
1.7404e-06
1.4244e-06
1.6543e-06
1.9747e-06
2.859e-06
1
1
1
1
1
1
1
1
1
1
1
1
1
1
1
1
1
1
1
1
1
1
1
1
1
1
1
1
1
1
1
1
1
1
1
1
1
1
1
1
1
1
1
1
1
1
1
1
1
1
1
1
1
1
1
1
1
1
1
1
1
1
1
1
1
1
1
1
1
1
1
1
1
1
1
1
1
1
1
1
1
0.99999
0.99999
0.99999
0.99999
0.99999
0.99999
0.99999
0.99999
0.99999
0.99999
0.99999
0.99999
0.99999
0.99999
0.99999
0.99999
0.99999
0.99999
0.99999
0.99999
0.99999
0.99999
0.99999
0.99999
0.99999
0.99999
0.99999
0.99999
0.99999
0.99999
0.99999
0.99999
0.99999
0.99999
0.99999
0.99999
0.99999
0.99999
0.99999
0.99999
0.99999
0.99999
0.99999
0.99999
0.99999
0.99999
0.99999
0.99999
0.99999
0.99999
0.99999
0.99999
0.99999
0.99999
0.99999
0.99999
0.99999
0.99999
0.99999
0.99999
0.99999
0.99999
0.99999
0.99999
0.99999
0.99999
0.99999
0.99999
0.99999
0.99999
0.99999
0.99999
0.99999
0.99999
0.99999
0.99999
0.99999
0.99999
0.99999
0.99999
0.99999
0.99999
0.99999
0.99999
0.99999
0.99999
0.99999
0.99999
0.99999
0.99999
0.99999
0.99999
0.99999
0.99999
0.99999
0.99999
1
1
1
1
1
1
1
1
1
1
1
1
1
1
1
1
1
1
1
1
1
1
1
1
1
0.99999
0.99999
0.99999
0.99999
0.99999
0.99999
0.99999
0.99999
0.99999
0.99999
0.99999
0.99999
0.99999
0.99999
0.99999
0.99999
0.99999
0.99999
0.99999
0.99999
0.99999
0.99999
0.99999
0.99999
0.99999
0.99999
0.99999
0.99999
0.99999
0.99999
0.99999
0.99999
0.99999
0.99999
0.99999
0.99999
0.99999
0.99999
0.99999
0.99999
0.99998
0.99998
0.99998
0.99998
0.99998
0.99998
0.99998
0.99998
0.99998
0.99998
0.99998
0.99998
0.99998
0.99998
0.99998
0.99998
0.99999
0.99999
0.99999
0.99999
0.99999
0.99999
0.99999
0.99999
1
1
1
1
0.99999
0.99998
0.99993
0.99968
0.99794
0.97628
0.74172
0.04092
0.0016778
8.9296e-05
8.4656e-06
1.6134e-06
7.9639e-07
1.0133e-06
2.3225e-06
6.3421e-06
1.3875e-05
2.575e-05
3.7811e-05
4.6978e-05
5.1315e-05
5.2215e-05
5.1629e-05
5.0448e-05
4.9318e-05
4.8193e-05
4.7159e-05
4.5977e-05
4.5038e-05
4.4354e-05
4.3845e-05
4.3398e-05
4.2831e-05
4.2216e-05
4.1563e-05
4.1091e-05
4.0608e-05
3.9456e-05
3.7775e-05
3.7204e-05
4.1692e-05
5.9134e-05
3.521e-05
1.3708e-05
4.2009e-06
1.9511e-06
1.4474e-06
2.6572e-06
3.7483e-06
4.0539e-06
3.9627e-06
3.8056e-06
3.6849e-06
3.5867e-06
3.4962e-06
3.4118e-06
3.337e-06
3.2719e-06
3.2147e-06
3.1627e-06
3.1141e-06
3.0674e-06
3.0221e-06
2.978e-06
2.9349e-06
2.8929e-06
2.8519e-06
2.812e-06
2.7731e-06
2.7351e-06
2.698e-06
2.6619e-06
2.6266e-06
2.5921e-06
2.5586e-06
2.5258e-06
2.4939e-06
2.4628e-06
2.4326e-06
2.4033e-06
2.3748e-06
2.3471e-06
2.3204e-06
2.2946e-06
2.2696e-06
2.2456e-06
2.2226e-06
2.2004e-06
2.1793e-06
2.159e-06
2.1397e-06
2.1214e-06
2.104e-06
2.0875e-06
2.072e-06
2.0573e-06
2.0436e-06
2.0307e-06
2.0186e-06
2.0074e-06
1.9969e-06
1.9873e-06
1.9783e-06
1.9701e-06
1.9625e-06
1.9555e-06
1.9492e-06
1.9435e-06
1.9383e-06
1.9336e-06
1.9294e-06
1.9257e-06
1.9224e-06
1.9196e-06
1.9171e-06
1.915e-06
1.9134e-06
1.9124e-06
1.9114e-06
1.9079e-06
1.8997e-06
1.8975e-06
1.9262e-06
2.0056e-06
2.0403e-06
1.6706e-06
1.3664e-06
1.5879e-06
1.8967e-06
2.7496e-06
1
1
1
1
1
1
1
1
1
1
1
1
1
1
1
1
1
1
1
1
1
1
1
1
1
1
1
1
1
1
1
1
1
1
1
1
1
1
1
1
1
1
1
1
1
1
1
1
1
1
1
1
1
1
1
1
1
1
1
1
1
1
1
1
1
1
1
1
1
1
1
1
1
1
1
1
1
0.99999
0.99999
0.99999
0.99999
0.99999
0.99999
0.99999
0.99999
0.99999
0.99999
0.99999
0.99999
0.99999
0.99999
0.99999
0.99999
0.99999
0.99999
0.99999
0.99999
0.99999
0.99999
0.99999
0.99999
0.99999
0.99999
0.99999
0.99999
0.99999
0.99999
0.99999
0.99999
0.99999
0.99999
0.99999
0.99999
0.99999
0.99999
0.99999
0.99999
0.99999
0.99999
0.99999
0.99999
0.99999
0.99999
0.99999
0.99999
0.99999
0.99999
0.99999
0.99999
0.99999
0.99999
0.99999
0.99999
0.99999
0.99999
0.99999
0.99999
0.99999
0.99999
0.99999
0.99999
0.99999
0.99999
0.99999
0.99999
0.99999
0.99999
0.99999
0.99999
0.99999
0.99999
0.99999
0.99999
0.99999
0.99999
0.99999
0.99999
0.99999
0.99999
0.99999
0.99999
0.99999
0.99999
0.99999
0.99999
0.99999
0.99999
0.99999
0.99999
0.99999
0.99999
0.99999
0.99999
0.99999
0.99999
0.99999
0.99999
0.99999
0.99999
0.99999
0.99999
0.99999
0.99999
0.99999
0.99999
0.99999
0.99999
0.99999
0.99999
0.99999
0.99999
0.99999
0.99999
0.99999
0.99999
0.99999
0.99999
0.99999
0.99999
0.99999
0.99999
0.99999
0.99999
0.99999
0.99999
0.99999
0.99999
0.99999
0.99999
0.99999
0.99999
0.99999
0.99999
0.99999
0.99999
0.99999
0.99999
0.99999
0.99999
0.99999
0.99999
0.99999
0.99999
0.99999
0.99999
0.99999
0.99999
0.99999
0.99999
0.99999
0.99999
0.99999
0.99999
0.99999
0.99999
0.99999
0.99999
0.99998
0.99998
0.99998
0.99998
0.99998
0.99998
0.99998
0.99998
0.99998
0.99998
0.99998
0.99998
0.99998
0.99998
0.99998
0.99998
0.99998
0.99998
0.99998
0.99998
0.99998
0.99998
0.99998
0.99998
0.99998
0.99998
0.99999
0.99999
0.99999
0.99999
1
1
1
1
0.99999
0.99998
0.99994
0.99982
0.99913
0.99479
0.96079
0.63836
0.018298
0.00039132
1.726e-05
2.2237e-06
1.0593e-06
1.042e-06
1.6803e-06
3.1585e-06
6.927e-06
1.4115e-05
2.4905e-05
3.6225e-05
4.4905e-05
4.9449e-05
5.0682e-05
5.0349e-05
4.9326e-05
4.8232e-05
4.7023e-05
4.6034e-05
4.5244e-05
4.4647e-05
4.3975e-05
4.3312e-05
4.2675e-05
4.2108e-05
4.1736e-05
4.1293e-05
4.0211e-05
3.8615e-05
3.7958e-05
4.1612e-05
5.6138e-05
4.2237e-05
2.0697e-05
6.7271e-06
2.7199e-06
1.5847e-06
1.9916e-06
2.6325e-06
3.2656e-06
3.5583e-06
3.6713e-06
3.6996e-06
3.664e-06
3.5866e-06
3.4907e-06
3.3969e-06
3.3129e-06
3.2411e-06
3.1792e-06
3.1246e-06
3.0747e-06
3.0278e-06
2.9826e-06
2.9388e-06
2.896e-06
2.8543e-06
2.8135e-06
2.7737e-06
2.7349e-06
2.6971e-06
2.6602e-06
2.6243e-06
2.5892e-06
2.5551e-06
2.5218e-06
2.4893e-06
2.4578e-06
2.4271e-06
2.3973e-06
2.3683e-06
2.3402e-06
2.3131e-06
2.2868e-06
2.2614e-06
2.2369e-06
2.2134e-06
2.1908e-06
2.1691e-06
2.1484e-06
2.1286e-06
2.1097e-06
2.0918e-06
2.0747e-06
2.0586e-06
2.0433e-06
2.0289e-06
2.0154e-06
2.0027e-06
1.9908e-06
1.9797e-06
1.9693e-06
1.9596e-06
1.9507e-06
1.9424e-06
1.9348e-06
1.9278e-06
1.9214e-06
1.9156e-06
1.9103e-06
1.9055e-06
1.9012e-06
1.8974e-06
1.894e-06
1.8911e-06
1.8885e-06
1.8866e-06
1.8852e-06
1.8838e-06
1.8801e-06
1.8718e-06
1.8694e-06
1.8975e-06
1.9756e-06
2.0097e-06
1.6451e-06
1.3452e-06
1.5638e-06
1.8685e-06
2.7103e-06
1
1
1
1
1
1
1
1
1
1
1
1
1
1
1
1
1
1
1
1
1
1
1
1
1
1
1
1
1
1
1
1
1
1
1
1
1
1
1
1
1
1
1
1
1
1
1
1
1
1
1
1
1
1
1
1
1
1
1
1
1
1
1
1
1
1
1
1
1
1
1
1
1
0.99999
0.99999
0.99999
0.99999
0.99999
0.99999
0.99999
0.99999
0.99999
0.99999
0.99999
0.99999
0.99999
0.99999
0.99999
0.99999
0.99999
0.99999
0.99999
0.99999
0.99999
0.99999
0.99999
0.99999
0.99999
0.99999
0.99999
0.99999
0.99999
0.99999
0.99999
0.99999
0.99999
0.99999
0.99999
0.99999
0.99999
0.99999
0.99999
0.99999
0.99999
0.99999
0.99999
0.99999
0.99999
0.99999
0.99999
0.99999
0.99999
0.99999
0.99999
0.99999
0.99999
0.99999
0.99999
0.99999
0.99999
0.99999
0.99999
0.99999
0.99999
0.99999
0.99999
0.99999
0.99999
0.99999
0.99999
0.99999
0.99999
0.99999
0.99999
0.99999
0.99999
0.99999
0.99999
0.99999
0.99999
0.99999
0.99999
0.99999
0.99999
0.99999
0.99999
0.99999
0.99999
0.99999
0.99999
0.99999
0.99999
0.99999
0.99999
0.99999
0.99999
0.99999
0.99999
0.99999
0.99999
0.99999
0.99999
0.99999
0.99999
0.99999
0.99999
0.99999
0.99999
0.99999
0.99999
0.99999
0.99999
0.99999
0.99999
0.99999
0.99999
0.99999
0.99999
0.99999
0.99999
0.99999
0.99999
0.99999
0.99999
0.99999
0.99999
0.99999
0.99999
0.99999
0.99999
0.99999
0.99999
0.99999
0.99999
0.99999
0.99999
0.99999
0.99999
0.99999
0.99999
0.99999
0.99999
0.99999
0.99999
0.99999
0.99999
0.99999
0.99999
0.99999
0.99999
0.99999
0.99999
0.99999
0.99999
0.99999
0.99999
0.99999
0.99999
0.99999
0.99999
0.99999
0.99999
0.99999
0.99998
0.99998
0.99998
0.99998
0.99998
0.99998
0.99998
0.99998
0.99998
0.99998
0.99998
0.99998
0.99997
0.99997
0.99997
0.99997
0.99997
0.99997
0.99997
0.99997
0.99998
0.99998
0.99998
0.99998
0.99998
0.99998
0.99998
0.99998
0.99998
0.99998
0.99998
0.99998
0.99999
0.99999
0.99999
0.99999
0.99999
0.99999
0.99998
0.99997
0.99995
0.99994
0.9999
0.99979
0.99934
0.99598
0.95552
0.28235
0.0040572
0.00011649
1.1192e-05
2.265e-06
1.2037e-06
1.0946e-06
1.7091e-06
3.3779e-06
7.1979e-06
1.4565e-05
2.531e-05
3.6432e-05
4.4556e-05
4.875e-05
4.979e-05
4.9452e-05
4.8545e-05
4.7634e-05
4.6765e-05
4.5946e-05
4.5071e-05
4.4334e-05
4.3669e-05
4.3159e-05
4.281e-05
4.2402e-05
4.1482e-05
4.0072e-05
3.925e-05
4.1576e-05
5.1791e-05
4.8929e-05
3.2726e-05
1.4833e-05
6.0003e-06
2.8542e-06
2.2113e-06
2.1273e-06
2.366e-06
2.568e-06
3.0652e-06
3.4155e-06
3.6032e-06
3.6558e-06
3.6168e-06
3.5349e-06
3.4393e-06
3.3479e-06
3.2668e-06
3.1973e-06
3.1374e-06
3.0845e-06
3.0361e-06
2.9905e-06
2.9464e-06
2.9035e-06
2.8614e-06
2.8203e-06
2.7802e-06
2.7411e-06
2.7029e-06
2.6657e-06
2.6294e-06
2.5941e-06
2.5597e-06
2.5263e-06
2.4937e-06
2.462e-06
2.4313e-06
2.4014e-06
2.3724e-06
2.3443e-06
2.3172e-06
2.291e-06
2.2656e-06
2.2413e-06
2.2178e-06
2.1953e-06
2.1737e-06
2.153e-06
2.1333e-06
2.1145e-06
2.0966e-06
2.0796e-06
2.0634e-06
2.0482e-06
2.0338e-06
2.0202e-06
2.0074e-06
1.9954e-06
1.9841e-06
1.9736e-06
1.9638e-06
1.9547e-06
1.9462e-06
1.9384e-06
1.9312e-06
1.9246e-06
1.9186e-06
1.9131e-06
1.9081e-06
1.9037e-06
1.8997e-06
1.8962e-06
1.8932e-06
1.8907e-06
1.8889e-06
1.8872e-06
1.8831e-06
1.8745e-06
1.8718e-06
1.8998e-06
1.9778e-06
2.0117e-06
1.6466e-06
1.3464e-06
1.5652e-06
1.8702e-06
2.7129e-06
1
1
1
1
1
1
1
1
1
1
1
1
1
1
1
1
1
1
1
1
1
1
1
1
1
1
1
1
1
1
1
1
1
1
1
1
1
1
1
1
1
1
1
1
1
1
1
1
1
1
1
1
1
1
1
1
1
1
1
1
1
1
1
1
1
1
1
1
0.99999
0.99999
0.99999
0.99999
0.99999
0.99999
0.99999
0.99999
0.99999
0.99999
0.99999
0.99999
0.99999
0.99999
0.99999
0.99999
0.99999
0.99999
0.99999
0.99999
0.99999
0.99999
0.99999
0.99999
0.99999
0.99999
0.99999
0.99999
0.99999
0.99999
0.99999
0.99999
0.99999
0.99999
0.99999
0.99999
0.99999
0.99999
0.99999
0.99999
0.99999
0.99999
0.99999
0.99999
0.99999
0.99999
0.99999
0.99999
0.99999
0.99999
0.99999
0.99999
0.99999
0.99999
0.99999
0.99999
0.99999
0.99999
0.99999
0.99999
0.99999
0.99999
0.99999
0.99999
0.99999
0.99999
0.99999
0.99999
0.99999
0.99999
0.99999
0.99999
0.99999
0.99999
0.99999
0.99999
0.99999
0.99999
0.99999
0.99999
0.99999
0.99999
0.99999
0.99999
0.99999
0.99999
0.99999
0.99999
0.99999
0.99999
0.99999
0.99999
0.99999
0.99999
0.99999
0.99999
0.99999
0.99999
0.99999
0.99999
0.99999
0.99999
0.99999
0.99999
0.99999
0.99999
0.99999
0.99999
0.99999
0.99999
0.99999
0.99999
0.99999
0.99999
0.99999
0.99999
0.99999
0.99999
0.99999
0.99999
0.99999
0.99999
0.99999
0.99999
0.99999
0.99999
0.99999
0.99999
0.99999
0.99999
0.99999
0.99999
0.99999
0.99999
0.99999
0.99999
0.99999
0.99999
0.99999
0.99999
0.99999
0.99999
0.99999
0.99999
0.99999
0.99999
0.99999
0.99999
0.99999
0.99999
0.99999
0.99999
0.99999
0.99999
0.99999
0.99999
0.99999
0.99999
0.99999
0.99999
0.99999
0.99999
0.99999
0.99999
0.99998
0.99998
0.99998
0.99998
0.99998
0.99998
0.99998
0.99998
0.99997
0.99997
0.99997
0.99997
0.99997
0.99997
0.99997
0.99997
0.99997
0.99997
0.99997
0.99997
0.99997
0.99997
0.99997
0.99997
0.99997
0.99998
0.99998
0.99998
0.99998
0.99998
0.99998
0.99998
0.99998
0.99998
0.99999
0.99999
0.99998
0.99997
0.99996
0.99994
0.99994
0.99995
0.99996
0.99997
0.99998
0.99997
0.99991
0.9994
0.99211
0.88849
0.077162
0.0018441
7.4849e-05
7.9687e-06
1.895e-06
1.0771e-06
1.0864e-06
1.666e-06
3.3672e-06
7.3372e-06
1.5141e-05
2.6e-05
3.6848e-05
4.4272e-05
4.8128e-05
4.9311e-05
4.9177e-05
4.844e-05
4.7479e-05
4.641e-05
4.5518e-05
4.4659e-05
4.4084e-05
4.3728e-05
4.3394e-05
4.2721e-05
4.1571e-05
4.0531e-05
4.1412e-05
4.7268e-05
5.2625e-05
4.7342e-05
2.9756e-05
1.6903e-05
7.3569e-06
4.4854e-06
3.0647e-06
2.5372e-06
2.1158e-06
2.274e-06
2.5001e-06
3.0272e-06
3.3863e-06
3.5661e-06
3.6114e-06
3.5702e-06
3.4892e-06
3.396e-06
3.3078e-06
3.2302e-06
3.1644e-06
3.1077e-06
3.0574e-06
3.0108e-06
2.9662e-06
2.9228e-06
2.8803e-06
2.8387e-06
2.798e-06
2.7583e-06
2.7196e-06
2.6818e-06
2.6451e-06
2.6093e-06
2.5745e-06
2.5407e-06
2.5077e-06
2.4758e-06
2.4447e-06
2.4146e-06
2.3854e-06
2.3572e-06
2.3298e-06
2.3035e-06
2.278e-06
2.2536e-06
2.23e-06
2.2074e-06
2.1857e-06
2.165e-06
2.1452e-06
2.1263e-06
2.1082e-06
2.0911e-06
2.0748e-06
2.0594e-06
2.0448e-06
2.0311e-06
2.0181e-06
2.0059e-06
1.9944e-06
1.9837e-06
1.9736e-06
1.9643e-06
1.9556e-06
1.9475e-06
1.9401e-06
1.9333e-06
1.927e-06
1.9214e-06
1.9162e-06
1.9116e-06
1.9075e-06
1.9039e-06
1.901e-06
1.8988e-06
1.8966e-06
1.8921e-06
1.8831e-06
1.8801e-06
1.9079e-06
1.986e-06
2.0199e-06
1.6532e-06
1.3519e-06
1.5714e-06
1.8775e-06
2.7231e-06
1
1
1
1
1
1
1
1
1
1
1
1
1
1
1
1
1
1
1
1
1
1
1
1
1
1
1
1
1
1
1
1
1
1
1
1
1
1
1
1
1
1
1
1
1
1
1
1
1
1
1
1
1
1
1
1
1
1
1
1
1
1
1
0.99999
0.99999
0.99999
0.99999
0.99999
0.99999
0.99999
0.99999
0.99999
0.99999
0.99999
0.99999
0.99999
0.99999
0.99999
0.99999
0.99999
0.99999
0.99999
0.99999
0.99999
0.99999
0.99999
0.99999
0.99999
0.99999
0.99999
0.99999
0.99999
0.99999
0.99999
0.99999
0.99999
0.99999
0.99999
0.99999
0.99999
0.99999
0.99999
0.99999
0.99999
0.99999
0.99999
0.99999
0.99999
0.99999
0.99999
0.99999
0.99999
0.99999
0.99999
0.99999
0.99999
0.99999
0.99999
0.99999
0.99999
0.99999
0.99999
0.99999
0.99999
0.99999
0.99999
0.99999
0.99999
0.99999
0.99999
0.99999
0.99999
0.99999
0.99999
0.99999
0.99999
0.99999
0.99999
0.99999
0.99999
0.99999
0.99999
0.99999
0.99999
0.99999
0.99999
0.99999
0.99999
0.99999
0.99999
0.99999
0.99999
0.99999
0.99999
0.99999
0.99999
0.99999
0.99999
0.99999
0.99999
0.99999
0.99999
0.99999
0.99999
0.99999
0.99999
0.99999
0.99999
0.99999
0.99999
0.99999
0.99999
0.99999
0.99999
0.99999
0.99999
0.99999
0.99999
0.99999
0.99999
0.99999
0.99999
0.99999
0.99999
0.99999
1
1
1
1
1
1
1
1
1
1
1
1
1
1
1
1
1
1
1
1
1
1
1
1
1
1
1
1
1
1
1
0.99999
0.99999
0.99999