/*--------------------------------*- C++ -*----------------------------------*\
| =========                 |                                                 |
| \\      /  F ield         | OpenFOAM: The Open Source CFD Toolbox           |
|  \\    /   O peration     | Version:  5.x                                   |
|   \\  /    A nd           | Web:      www.OpenFOAM.org                      |
|    \\/     M anipulation  |                                                 |
\*---------------------------------------------------------------------------*/
FoamFile
{
    version     2.0;
    format      ascii;
    class       volScalarField;
    location    "20";
    object      gamma;
}
// * * * * * * * * * * * * * * * * * * * * * * * * * * * * * * * * * * * * * //

dimensions      [0 0 0 0 0 0 0];

internalField   nonuniform List<scalar> 
86400
(
0.3621
0.3471
0.3335
0.3164
0.306
0.2978
0.2899
0.2856
0.2859
0.2907
0.3
0.3135
0.3301
0.3493
0.3667
0.3803
0.3923
0.404
0.4166
0.4293
0.442
0.4525
0.462
0.4725
0.4842
0.4938
0.503
0.5105
0.5163
0.5215
0.5266
0.5307
0.5344
0.5376
0.5402
0.5421
0.5456
0.5501
0.5557
0.5568
0.5548
0.5498
0.5454
0.5428
0.541
0.5377
0.5329
0.5292
0.5267
0.5265
0.5262
0.5259
0.5256
0.5253
0.5251
0.5217
0.5164
0.5103
0.505
0.5013
0.5011
0.5008
0.5005
0.4979
0.4941
0.4897
0.486
0.4834
0.4832
0.4808
0.4771
0.4729
0.4692
0.4669
0.4669
0.4669
0.4669
0.4667
0.4666
0.4663
0.466
0.4658
0.4655
0.4653
0.465
0.4648
0.4644
0.4641
0.4637
0.4633
0.463
0.4626
0.4622
0.4618
0.4614
0.461
0.4611
0.4615
0.4619
0.4628
0.4636
0.4645
0.4656
0.4668
0.4673
0.4674
0.4667
0.4658
0.4648
0.464
0.4634
0.4631
0.4628
0.4624
0.4619
0.4615
0.4612
0.4609
0.4607
0.4604
0.4601
0.4598
0.4595
0.4592
0.4589
0.4586
0.4583
0.458
0.4577
0.4573
0.4569
0.4565
0.4561
0.4557
0.4553
0.4549
0.4545
0.454
0.4534
0.4527
0.4519
0.4502
0.4481
0.4454
0.4431
0.4411
0.4396
0.438
0.436
0.4338
0.4312
0.4283
0.4251
0.4218
0.4187
0.4164
0.415
0.4146
0.6166
0.7776
0.3507
0.3361
0.3235
0.3078
0.2997
0.2945
0.2899
0.2896
0.2944
0.3041
0.3187
0.3353
0.3531
0.3709
0.389
0.4055
0.4226
0.4381
0.4542
0.4688
0.4832
0.4956
0.5073
0.5189
0.5314
0.5435
0.5538
0.5624
0.5686
0.5744
0.5764
0.5757
0.5736
0.5716
0.5709
0.5726
0.5752
0.5781
0.5813
0.5805
0.5771
0.5714
0.5664
0.5632
0.5621
0.5599
0.5572
0.5547
0.5529
0.5525
0.552
0.5515
0.551
0.5505
0.5502
0.5472
0.5427
0.5367
0.5321
0.5289
0.5286
0.5281
0.5275
0.5251
0.5218
0.5174
0.5141
0.5119
0.5115
0.5087
0.5047
0.5
0.4961
0.4915
0.4881
0.4841
0.4806
0.4782
0.478
0.4776
0.4773
0.4769
0.4766
0.4762
0.4759
0.4755
0.4751
0.4746
0.4741
0.4737
0.4732
0.4731
0.4734
0.4737
0.474
0.474
0.474
0.4744
0.4749
0.4756
0.4763
0.477
0.4777
0.4782
0.4783
0.4781
0.4772
0.4761
0.4749
0.4738
0.4732
0.4729
0.4725
0.472
0.4716
0.4712
0.4708
0.4705
0.4702
0.4698
0.4695
0.4691
0.4687
0.4683
0.468
0.4675
0.4671
0.4667
0.4662
0.4658
0.4652
0.4647
0.4641
0.4636
0.463
0.4625
0.4619
0.4612
0.4603
0.4592
0.4581
0.4563
0.4542
0.4518
0.4494
0.447
0.4449
0.4425
0.4398
0.4366
0.433
0.429
0.4248
0.4204
0.4163
0.4132
0.4114
0.4116
0.4839
0.5774
0.3423
0.3287
0.3175
0.3043
0.2994
0.2981
0.298
0.3027
0.3131
0.3273
0.3453
0.3626
0.3815
0.4015
0.4242
0.4451
0.4657
0.4829
0.5012
0.5176
0.5353
0.5501
0.5633
0.5758
0.5886
0.5973
0.6031
0.6065
0.6085
0.6115
0.6125
0.6108
0.6073
0.6041
0.6023
0.604
0.6057
0.6075
0.6094
0.6078
0.6038
0.5972
0.5923
0.5891
0.5885
0.5872
0.5854
0.5838
0.5825
0.5819
0.5812
0.5805
0.5798
0.5792
0.5786
0.5762
0.5729
0.569
0.5656
0.5631
0.5626
0.5619
0.5611
0.5592
0.5566
0.5537
0.5511
0.5493
0.5488
0.5461
0.5422
0.5372
0.5336
0.5267
0.5194
0.5107
0.5029
0.4977
0.4974
0.497
0.4965
0.496
0.4955
0.495
0.4945
0.494
0.4939
0.494
0.4942
0.4943
0.4941
0.4941
0.4945
0.4949
0.4953
0.4953
0.4952
0.4954
0.4959
0.4964
0.4968
0.497
0.4971
0.4972
0.4969
0.4963
0.495
0.4936
0.4922
0.4912
0.4905
0.49
0.4895
0.489
0.4886
0.4881
0.4877
0.4873
0.4869
0.4864
0.4859
0.4854
0.4849
0.4844
0.4839
0.4833
0.4828
0.4822
0.4815
0.4809
0.4801
0.4794
0.4787
0.4779
0.4772
0.4764
0.4754
0.4743
0.4731
0.4716
0.47
0.468
0.4656
0.463
0.4603
0.4574
0.4545
0.4512
0.4474
0.4431
0.4384
0.4333
0.4279
0.4226
0.4177
0.414
0.4122
0.4132
0.4176
0.4252
0.3334
0.3213
0.3126
0.3034
0.3035
0.3081
0.3146
0.3266
0.3436
0.3618
0.3811
0.3989
0.4207
0.4444
0.473
0.4989
0.5244
0.544
0.5637
0.5814
0.5994
0.6156
0.6276
0.6367
0.645
0.6487
0.6504
0.6518
0.6522
0.6538
0.6545
0.6522
0.6469
0.6432
0.641
0.6424
0.6433
0.6438
0.6443
0.6421
0.6385
0.634
0.6301
0.6273
0.6271
0.6267
0.626
0.6253
0.6245
0.6237
0.6229
0.622
0.6211
0.6202
0.6194
0.6176
0.6152
0.6125
0.6101
0.6082
0.6074
0.6065
0.6056
0.604
0.602
0.5999
0.598
0.5966
0.596
0.5937
0.5906
0.5872
0.5826
0.5723
0.5599
0.545
0.5333
0.5267
0.5262
0.5256
0.5249
0.5247
0.5247
0.5249
0.5249
0.5247
0.5246
0.5249
0.5253
0.5255
0.5254
0.5253
0.5256
0.5262
0.5265
0.5264
0.5261
0.526
0.5261
0.5262
0.5263
0.5259
0.5255
0.5248
0.5238
0.5225
0.521
0.5194
0.518
0.5169
0.5161
0.5155
0.5149
0.5144
0.5138
0.5133
0.5128
0.5122
0.5116
0.511
0.5103
0.5096
0.509
0.5083
0.5075
0.5068
0.506
0.5051
0.5042
0.5033
0.5023
0.5013
0.5003
0.4993
0.4982
0.4969
0.4955
0.4938
0.492
0.4899
0.4877
0.4852
0.4824
0.4795
0.4762
0.4726
0.4686
0.464
0.4589
0.4532
0.4471
0.4406
0.4342
0.4279
0.4224
0.4185
0.4172
0.4197
0.4264
0.4371
0.3326
0.3229
0.3174
0.3133
0.3196
0.3309
0.3442
0.3612
0.3796
0.3962
0.4138
0.4322
0.4578
0.4869
0.5197
0.5478
0.5733
0.5942
0.6151
0.6347
0.6512
0.6648
0.6722
0.6758
0.6784
0.6787
0.6771
0.6754
0.6749
0.6757
0.6767
0.6753
0.6723
0.6696
0.6679
0.6691
0.6699
0.6703
0.6707
0.6694
0.6671
0.6644
0.6618
0.66
0.6597
0.6591
0.6583
0.6575
0.6566
0.6558
0.6548
0.6539
0.6529
0.6519
0.651
0.6501
0.6492
0.6483
0.6474
0.6465
0.6455
0.6446
0.6436
0.6427
0.6418
0.641
0.6402
0.6394
0.6387
0.6372
0.6335
0.6287
0.6212
0.6079
0.5927
0.5774
0.5657
0.5601
0.5601
0.5597
0.5589
0.5588
0.559
0.5594
0.5596
0.5594
0.5592
0.5595
0.5601
0.5603
0.5601
0.5598
0.5598
0.5598
0.5598
0.5595
0.5589
0.5585
0.5582
0.5578
0.5573
0.5564
0.5553
0.554
0.5525
0.5509
0.5492
0.5477
0.5463
0.5453
0.5445
0.5438
0.5431
0.5425
0.5418
0.5411
0.5404
0.5397
0.5389
0.5381
0.5372
0.5364
0.5355
0.5346
0.5336
0.5326
0.5316
0.5304
0.5293
0.5281
0.527
0.5257
0.5245
0.5231
0.5215
0.5198
0.5178
0.5156
0.5132
0.5105
0.5076
0.5045
0.5011
0.4974
0.4934
0.4889
0.4839
0.4783
0.4722
0.4656
0.4588
0.4518
0.4451
0.439
0.4341
0.431
0.431
0.4348
0.4428
0.4542
0.3344
0.3277
0.3262
0.3281
0.341
0.3578
0.3733
0.3895
0.4049
0.4178
0.4339
0.4556
0.4851
0.5191
0.5533
0.5827
0.609
0.6318
0.6508
0.6663
0.6767
0.6845
0.687
0.6884
0.6876
0.6874
0.686
0.6865
0.6867
0.6878
0.6896
0.6896
0.6885
0.6874
0.6869
0.6879
0.6886
0.689
0.6892
0.6894
0.6895
0.6894
0.6893
0.689
0.6885
0.6878
0.6871
0.6863
0.6854
0.6845
0.6835
0.6826
0.6816
0.6806
0.6795
0.6786
0.6776
0.6766
0.6756
0.6746
0.6736
0.6726
0.6716
0.6707
0.6699
0.6691
0.6668
0.6636
0.6601
0.6569
0.6526
0.6489
0.6417
0.6296
0.6144
0.6023
0.593
0.5892
0.5894
0.5892
0.5883
0.5881
0.5883
0.5889
0.5891
0.5889
0.5885
0.5885
0.5885
0.5885
0.5881
0.5875
0.587
0.5867
0.5863
0.5857
0.5849
0.584
0.5832
0.5822
0.5812
0.5799
0.5783
0.5767
0.5749
0.5731
0.5715
0.5703
0.5691
0.5682
0.5674
0.5666
0.5658
0.565
0.5642
0.5634
0.5625
0.5616
0.5606
0.5596
0.5586
0.5576
0.5565
0.5554
0.5542
0.5529
0.5517
0.5503
0.549
0.5477
0.5463
0.5448
0.5432
0.5414
0.5394
0.5372
0.5348
0.5321
0.5292
0.526
0.5226
0.519
0.5151
0.5109
0.5062
0.5011
0.4954
0.4893
0.4828
0.476
0.4691
0.4626
0.4566
0.4516
0.4481
0.4467
0.4482
0.4532
0.4614
0.4721
0.3356
0.3322
0.3353
0.3437
0.3612
0.3789
0.3927
0.405
0.4158
0.4267
0.445
0.4711
0.5057
0.5417
0.5748
0.602
0.6262
0.6467
0.6618
0.6738
0.6798
0.6839
0.6835
0.6847
0.6853
0.6868
0.6874
0.6896
0.6913
0.6933
0.6968
0.6997
0.702
0.7039
0.7053
0.7064
0.707
0.7074
0.7077
0.7077
0.7077
0.7076
0.7073
0.7069
0.7063
0.7057
0.7049
0.7041
0.7033
0.7024
0.7014
0.7005
0.6995
0.6984
0.6974
0.6964
0.6954
0.6943
0.6933
0.6923
0.6913
0.6904
0.6895
0.6873
0.6842
0.6808
0.6756
0.6702
0.6657
0.6617
0.6565
0.6522
0.644
0.6342
0.6239
0.617
0.612
0.6111
0.6113
0.611
0.6101
0.6097
0.6096
0.6097
0.6097
0.6093
0.6086
0.6082
0.6078
0.6073
0.6067
0.6057
0.6048
0.6039
0.603
0.6021
0.6012
0.6003
0.5992
0.5979
0.5964
0.5947
0.5928
0.5909
0.5892
0.5875
0.5862
0.5852
0.5842
0.5833
0.5824
0.5815
0.5806
0.5797
0.5787
0.5777
0.5767
0.5756
0.5745
0.5733
0.5722
0.5709
0.5696
0.5683
0.5669
0.5655
0.5641
0.5627
0.5612
0.5596
0.558
0.5562
0.5543
0.5521
0.5497
0.5471
0.5443
0.5412
0.5379
0.5344
0.5307
0.5268
0.5225
0.5179
0.5129
0.5074
0.5016
0.4954
0.489
0.4826
0.4764
0.4708
0.4661
0.4627
0.461
0.4614
0.4644
0.47
0.4779
0.487
0.339
0.3396
0.3476
0.361
0.3798
0.3961
0.406
0.4136
0.4226
0.4361
0.4578
0.487
0.5213
0.5541
0.5836
0.6092
0.6319
0.65
0.6613
0.6686
0.6699
0.6724
0.6744
0.6776
0.6801
0.6851
0.69
0.6959
0.7008
0.7048
0.7081
0.7108
0.713
0.7147
0.7161
0.7171
0.7178
0.7183
0.7185
0.7186
0.7185
0.7183
0.718
0.7176
0.717
0.7164
0.7156
0.7149
0.714
0.7131
0.7122
0.7113
0.7103
0.7093
0.7083
0.7073
0.7063
0.7053
0.7043
0.7034
0.7024
0.7002
0.6975
0.6924
0.6865
0.6807
0.6744
0.6676
0.6617
0.6572
0.6521
0.6484
0.6428
0.6365
0.6308
0.628
0.6264
0.6265
0.6264
0.6261
0.6251
0.6245
0.624
0.6237
0.6232
0.6225
0.6215
0.6205
0.6195
0.6185
0.6175
0.6166
0.6156
0.6147
0.6137
0.6128
0.6117
0.6105
0.6091
0.6073
0.6055
0.6035
0.6015
0.5997
0.5982
0.5969
0.5958
0.5949
0.594
0.593
0.5921
0.5911
0.59
0.589
0.5878
0.5867
0.5855
0.5843
0.583
0.5817
0.5804
0.579
0.5775
0.5761
0.5746
0.5731
0.5716
0.57
0.5684
0.5666
0.5647
0.5626
0.5603
0.5578
0.5551
0.5522
0.5491
0.5459
0.5424
0.5387
0.5349
0.5308
0.5263
0.5216
0.5165
0.5111
0.5054
0.4997
0.4939
0.4883
0.4832
0.479
0.4758
0.474
0.4738
0.4755
0.4792
0.4847
0.4913
0.4982
0.3462
0.351
0.3621
0.3781
0.3967
0.4101
0.4161
0.4225
0.4335
0.4502
0.4741
0.5029
0.5322
0.5604
0.5873
0.611
0.6312
0.6453
0.6522
0.6548
0.6566
0.6602
0.6663
0.6742
0.6816
0.6896
0.6963
0.7019
0.7066
0.7104
0.7136
0.7163
0.7184
0.7202
0.7215
0.7226
0.7234
0.7239
0.7242
0.7243
0.7243
0.7241
0.7238
0.7233
0.7228
0.7222
0.7215
0.7208
0.72
0.7191
0.7182
0.7173
0.7164
0.7154
0.7145
0.7135
0.7126
0.7116
0.7097
0.7071
0.7043
0.6996
0.6949
0.6882
0.6807
0.6725
0.666
0.6595
0.6553
0.6515
0.6476
0.6449
0.6421
0.6394
0.6375
0.637
0.6367
0.6364
0.636
0.6353
0.6343
0.6333
0.6323
0.6313
0.6302
0.6292
0.6281
0.6271
0.6261
0.6251
0.6242
0.6232
0.6222
0.6213
0.6203
0.6191
0.6177
0.6161
0.6142
0.6122
0.6101
0.6082
0.6064
0.605
0.6038
0.6027
0.6017
0.6008
0.5998
0.5987
0.5976
0.5965
0.5953
0.5941
0.5929
0.5916
0.5903
0.589
0.5876
0.5861
0.5846
0.5831
0.5816
0.5801
0.5787
0.5771
0.5755
0.5737
0.5719
0.5699
0.5677
0.5654
0.5628
0.5601
0.5572
0.5542
0.551
0.5477
0.5442
0.5406
0.5367
0.5326
0.5281
0.5235
0.5186
0.5136
0.5085
0.5034
0.4986
0.4941
0.4902
0.4872
0.4854
0.4848
0.4856
0.4879
0.4914
0.4959
0.5008
0.505
0.3564
0.3635
0.3759
0.3929
0.4102
0.4228
0.4302
0.4398
0.4535
0.4719
0.4936
0.517
0.5406
0.565
0.5884
0.6089
0.6246
0.6339
0.6369
0.6399
0.645
0.6533
0.6639
0.6746
0.6836
0.6912
0.6976
0.7031
0.7077
0.7115
0.7148
0.7175
0.7198
0.7216
0.7231
0.7242
0.7251
0.7257
0.7261
0.7263
0.7263
0.7262
0.7259
0.7255
0.725
0.7245
0.7238
0.7231
0.7223
0.7215
0.7207
0.7198
0.7189
0.718
0.7171
0.7152
0.7127
0.71
0.7058
0.7013
0.6974
0.6914
0.6854
0.6775
0.67
0.6629
0.6577
0.6526
0.6496
0.6469
0.6452
0.6448
0.6445
0.6442
0.6436
0.6427
0.6418
0.6408
0.6398
0.6387
0.6377
0.6366
0.6356
0.6345
0.6335
0.6325
0.6315
0.6305
0.6295
0.6285
0.6275
0.6265
0.6255
0.6243
0.6231
0.6215
0.6197
0.6177
0.6156
0.6135
0.6116
0.61
0.6086
0.6075
0.6065
0.6055
0.6045
0.6034
0.6023
0.6012
0.5999
0.5987
0.5974
0.5961
0.5948
0.5934
0.592
0.5905
0.589
0.5875
0.5859
0.5844
0.5829
0.5814
0.5799
0.5783
0.5765
0.5746
0.5725
0.5703
0.568
0.5654
0.5628
0.56
0.557
0.5539
0.5508
0.5476
0.5443
0.5407
0.5369
0.5329
0.5287
0.5243
0.5199
0.5154
0.5111
0.5069
0.503
0.4996
0.4968
0.4949
0.494
0.4941
0.4952
0.4973
0.5001
0.5032
0.506
0.5078
0.369
0.3767
0.3891
0.4076
0.4262
0.443
0.4557
0.4685
0.4823
0.499
0.5148
0.5324
0.551
0.5701
0.588
0.603
0.613
0.6176
0.6225
0.6293
0.6391
0.6508
0.6626
0.6726
0.6812
0.6886
0.6949
0.7004
0.7051
0.7091
0.7125
0.7154
0.7178
0.7198
0.7214
0.7227
0.7237
0.7244
0.7249
0.7252
0.7253
0.7253
0.7251
0.7248
0.7243
0.7238
0.7232
0.7226
0.7218
0.7211
0.7203
0.7195
0.7177
0.7153
0.7126
0.7086
0.7042
0.7004
0.695
0.6893
0.6841
0.6777
0.6717
0.6658
0.6596
0.6541
0.6515
0.6495
0.6492
0.6488
0.6482
0.6472
0.6463
0.6453
0.6444
0.6434
0.6424
0.6414
0.6403
0.6393
0.6382
0.6372
0.6361
0.6351
0.6341
0.6331
0.6321
0.6312
0.6302
0.6291
0.6281
0.627
0.6258
0.6243
0.6226
0.6206
0.6184
0.6163
0.6143
0.6125
0.6111
0.6099
0.6087
0.6077
0.6067
0.6056
0.6045
0.6033
0.6021
0.6009
0.5995
0.5982
0.5968
0.5955
0.594
0.5925
0.591
0.5895
0.588
0.5865
0.585
0.5835
0.582
0.5804
0.5788
0.5771
0.5751
0.5731
0.5709
0.5685
0.5661
0.5635
0.5608
0.558
0.5551
0.5522
0.5492
0.5462
0.543
0.5396
0.536
0.5322
0.5284
0.5245
0.5206
0.5168
0.5132
0.5099
0.5069
0.5044
0.5024
0.5012
0.5007
0.5009
0.5019
0.5034
0.5051
0.5066
0.5075
0.5071
0.3817
0.389
0.4027
0.4249
0.4494
0.4723
0.4901
0.5048
0.516
0.527
0.537
0.5493
0.562
0.5746
0.5857
0.5937
0.5978
0.6031
0.6107
0.6212
0.6337
0.6462
0.6572
0.6667
0.675
0.6823
0.6888
0.6945
0.6994
0.7036
0.7073
0.7104
0.7131
0.7152
0.717
0.7185
0.7196
0.7205
0.7211
0.7215
0.7217
0.7217
0.7216
0.7214
0.7211
0.7206
0.7201
0.7195
0.7188
0.7172
0.715
0.7125
0.7086
0.7044
0.7007
0.6954
0.6898
0.6848
0.6789
0.6732
0.669
0.6638
0.6589
0.6556
0.6528
0.6509
0.6503
0.6494
0.6485
0.6476
0.6466
0.6456
0.6447
0.6437
0.6427
0.6416
0.6406
0.6395
0.6385
0.6374
0.6364
0.6354
0.6344
0.6334
0.6324
0.6315
0.6305
0.6295
0.6284
0.6273
0.6262
0.6249
0.6234
0.6214
0.6193
0.617
0.6148
0.6129
0.6113
0.6099
0.6088
0.6078
0.6067
0.6057
0.6046
0.6034
0.6022
0.6009
0.5996
0.5983
0.5969
0.5955
0.5941
0.5926
0.5911
0.5896
0.5881
0.5866
0.5851
0.5837
0.5822
0.5807
0.5791
0.5775
0.5758
0.5739
0.5718
0.5696
0.5674
0.565
0.5626
0.56
0.5573
0.5547
0.552
0.5493
0.5466
0.5438
0.5407
0.5375
0.5342
0.5307
0.5273
0.524
0.5207
0.5175
0.5146
0.5119
0.5096
0.5077
0.5063
0.5055
0.5051
0.5052
0.5056
0.5062
0.5067
0.5067
0.5059
0.5039
0.393
0.4019
0.4197
0.4485
0.4802
0.5098
0.5298
0.5422
0.5495
0.5559
0.5599
0.5653
0.5706
0.5758
0.5797
0.582
0.5853
0.5919
0.6018
0.614
0.6267
0.638
0.6482
0.6573
0.6656
0.6731
0.6797
0.6856
0.6908
0.6953
0.6993
0.7026
0.7055
0.7079
0.7099
0.7116
0.7129
0.7139
0.7147
0.7152
0.7156
0.7157
0.7157
0.7156
0.7154
0.7141
0.7122
0.71
0.7079
0.7048
0.7017
0.6982
0.6932
0.6878
0.6829
0.6772
0.6717
0.6676
0.6627
0.658
0.6549
0.6521
0.6501
0.6492
0.6484
0.6475
0.6466
0.6457
0.6447
0.6438
0.6428
0.6418
0.6408
0.6398
0.6387
0.6377
0.6366
0.6356
0.6346
0.6336
0.6326
0.6317
0.6307
0.6297
0.6287
0.6277
0.6267
0.6256
0.6245
0.6232
0.6218
0.6201
0.6182
0.6159
0.6137
0.6116
0.6098
0.6083
0.607
0.6059
0.6049
0.6038
0.6027
0.6016
0.6004
0.5991
0.5978
0.5965
0.5952
0.5938
0.5923
0.5909
0.5894
0.5879
0.5865
0.585
0.5836
0.5822
0.5808
0.5794
0.5779
0.5763
0.5747
0.5729
0.571
0.569
0.5669
0.5648
0.5625
0.5602
0.5578
0.5553
0.5528
0.5504
0.548
0.5456
0.543
0.5404
0.5375
0.5345
0.5315
0.5285
0.5256
0.5227
0.5199
0.5173
0.5149
0.5128
0.511
0.5094
0.5083
0.5074
0.5069
0.5066
0.5064
0.5061
0.5054
0.5042
0.5021
0.4988
0.4026
0.4151
0.4384
0.4758
0.5148
0.5479
0.5676
0.5775
0.5805
0.581
0.5782
0.5764
0.575
0.5745
0.5724
0.5736
0.5767
0.5841
0.5945
0.6059
0.6167
0.6267
0.6362
0.6451
0.6533
0.6608
0.6677
0.6738
0.6793
0.6841
0.6883
0.692
0.6951
0.6978
0.7001
0.7019
0.7035
0.7047
0.7057
0.7064
0.7069
0.7063
0.705
0.7034
0.7018
0.6992
0.6965
0.6933
0.6905
0.6865
0.683
0.6784
0.6729
0.6675
0.6636
0.6589
0.6544
0.6515
0.6487
0.6467
0.6459
0.6451
0.6443
0.6435
0.6426
0.6417
0.6408
0.6399
0.6389
0.638
0.637
0.6359
0.6349
0.6339
0.6328
0.6319
0.6309
0.6299
0.629
0.628
0.6271
0.6261
0.6252
0.6241
0.6231
0.622
0.6209
0.6196
0.6182
0.6166
0.6148
0.6129
0.6109
0.6087
0.6067
0.6049
0.6035
0.6024
0.6014
0.6003
0.5992
0.5981
0.5969
0.5957
0.5944
0.5931
0.5918
0.5904
0.589
0.5876
0.5862
0.5847
0.5833
0.5819
0.5805
0.5792
0.5779
0.5766
0.5751
0.5737
0.5721
0.5705
0.5687
0.5668
0.5649
0.5629
0.5608
0.5587
0.5565
0.5543
0.552
0.5497
0.5475
0.5454
0.5432
0.541
0.5386
0.5361
0.5335
0.5308
0.5282
0.5256
0.523
0.5206
0.5183
0.5161
0.5141
0.5123
0.5107
0.5093
0.5082
0.5072
0.5064
0.5056
0.5047
0.5036
0.502
0.4998
0.4967
0.4926
0.4103
0.4286
0.4584
0.5044
0.5481
0.5833
0.5988
0.6041
0.6017
0.5969
0.5893
0.5836
0.5763
0.5719
0.5685
0.5692
0.5719
0.5784
0.5869
0.5954
0.6041
0.6128
0.6215
0.6299
0.6379
0.6455
0.6525
0.6589
0.6646
0.6697
0.6743
0.6783
0.6817
0.6847
0.6873
0.6894
0.6904
0.6905
0.6901
0.6896
0.6895
0.6885
0.6866
0.6841
0.6818
0.6784
0.6753
0.6711
0.6678
0.6637
0.6606
0.657
0.6525
0.6482
0.6455
0.6429
0.6411
0.6404
0.6398
0.639
0.6382
0.6375
0.6367
0.6358
0.635
0.6341
0.6332
0.6322
0.6313
0.6303
0.6293
0.6283
0.6273
0.6264
0.6254
0.6245
0.6236
0.6227
0.6218
0.6208
0.6198
0.6189
0.6178
0.6168
0.6157
0.6145
0.6132
0.6116
0.6099
0.6079
0.606
0.604
0.6021
0.6003
0.5988
0.5974
0.5963
0.5953
0.5942
0.5931
0.592
0.5908
0.5895
0.5883
0.587
0.5856
0.5843
0.5829
0.5815
0.5801
0.5787
0.5774
0.5761
0.5748
0.5736
0.5723
0.571
0.5696
0.5682
0.5666
0.565
0.5633
0.5615
0.5596
0.5577
0.5557
0.5538
0.5517
0.5496
0.5475
0.5454
0.5434
0.5415
0.5397
0.5377
0.5356
0.5334
0.5311
0.5287
0.5264
0.5241
0.5218
0.5197
0.5176
0.5156
0.5137
0.5119
0.5103
0.5088
0.5075
0.5062
0.5051
0.5039
0.5026
0.5011
0.4993
0.497
0.494
0.4903
0.4857
0.4158
0.4403
0.4764
0.5285
0.5764
0.611
0.6213
0.6221
0.6156
0.6068
0.5959
0.5878
0.5789
0.5734
0.5691
0.5685
0.5696
0.5732
0.5777
0.5831
0.5887
0.5946
0.6008
0.6073
0.6141
0.6214
0.6283
0.6348
0.6407
0.6461
0.651
0.6553
0.6591
0.6625
0.6655
0.668
0.6687
0.6683
0.6671
0.6661
0.6657
0.6647
0.6624
0.6589
0.6563
0.6529
0.6503
0.6472
0.6444
0.6412
0.6391
0.6366
0.6344
0.6328
0.6324
0.6319
0.6313
0.6308
0.6301
0.6294
0.6287
0.628
0.6272
0.6264
0.6256
0.6247
0.6237
0.6228
0.6219
0.621
0.6201
0.6192
0.6183
0.6174
0.6165
0.6156
0.6148
0.6139
0.6129
0.612
0.611
0.6099
0.6088
0.6077
0.6064
0.6051
0.6035
0.6016
0.5997
0.5976
0.5956
0.5939
0.5924
0.591
0.5899
0.5888
0.5878
0.5867
0.5856
0.5844
0.5832
0.582
0.5808
0.5795
0.5782
0.5768
0.5755
0.5741
0.5728
0.5716
0.5704
0.5692
0.568
0.5669
0.5656
0.5644
0.563
0.5616
0.56
0.5584
0.5567
0.555
0.5532
0.5514
0.5496
0.5477
0.5458
0.5439
0.542
0.5402
0.5384
0.5367
0.535
0.5333
0.5315
0.5295
0.5275
0.5254
0.5233
0.5213
0.5193
0.5173
0.5154
0.5136
0.5118
0.5101
0.5085
0.507
0.5055
0.5041
0.5027
0.5013
0.4997
0.498
0.496
0.4937
0.4909
0.4875
0.4834
0.4786
0.4242
0.454
0.4955
0.5518
0.6006
0.631
0.6366
0.6332
0.6224
0.6123
0.6025
0.5941
0.5853
0.5791
0.5739
0.5706
0.5683
0.5666
0.566
0.5669
0.5683
0.5708
0.5744
0.579
0.5845
0.5912
0.5978
0.6041
0.6101
0.6157
0.6209
0.6255
0.6297
0.6335
0.6369
0.6399
0.6407
0.6401
0.6381
0.6369
0.6365
0.636
0.6344
0.632
0.63
0.6276
0.6261
0.6242
0.6225
0.6214
0.6215
0.6215
0.6213
0.6211
0.6208
0.6204
0.6199
0.6194
0.6189
0.6182
0.6176
0.6169
0.6161
0.6153
0.6145
0.6137
0.6129
0.6121
0.6113
0.6104
0.6096
0.6088
0.608
0.6071
0.6063
0.6054
0.6045
0.6036
0.6026
0.6016
0.6005
0.5995
0.5983
0.597
0.5954
0.5938
0.592
0.5901
0.588
0.5862
0.5844
0.5831
0.5819
0.5809
0.58
0.5789
0.5779
0.5768
0.5756
0.5745
0.5733
0.572
0.5708
0.5695
0.5682
0.567
0.5657
0.5646
0.5634
0.5624
0.5612
0.5602
0.5591
0.5579
0.5567
0.5553
0.5539
0.5524
0.5508
0.5492
0.5476
0.5459
0.5442
0.5425
0.5408
0.539
0.5373
0.5356
0.534
0.5324
0.5309
0.5295
0.5279
0.5263
0.5246
0.5228
0.5209
0.5191
0.5172
0.5155
0.5137
0.512
0.5103
0.5086
0.507
0.5055
0.5039
0.5024
0.5009
0.4994
0.4978
0.4962
0.4943
0.4923
0.4899
0.4872
0.4841
0.4805
0.4763
0.4715
0.4358
0.4692
0.5147
0.572
0.6185
0.643
0.645
0.6378
0.6283
0.6195
0.612
0.6052
0.5973
0.5899
0.582
0.5741
0.5664
0.5588
0.5523
0.5479
0.5448
0.5438
0.5443
0.5466
0.5505
0.5562
0.5621
0.5681
0.574
0.5797
0.585
0.59
0.5946
0.5989
0.6028
0.6064
0.6078
0.6079
0.6072
0.6067
0.6069
0.6074
0.607
0.6061
0.6053
0.605
0.6058
0.6064
0.6069
0.6072
0.6075
0.6076
0.6076
0.6076
0.6074
0.6072
0.6068
0.6064
0.6059
0.6054
0.6048
0.6042
0.6035
0.6029
0.6022
0.6015
0.6008
0.6001
0.5994
0.5987
0.5979
0.5972
0.5964
0.5955
0.5947
0.5938
0.5929
0.5919
0.5909
0.5898
0.5889
0.5877
0.5863
0.5847
0.5828
0.5809
0.579
0.5773
0.5755
0.5741
0.5728
0.5718
0.5708
0.5699
0.5689
0.5679
0.5668
0.5657
0.5646
0.5634
0.5623
0.5611
0.5598
0.5587
0.5575
0.5564
0.5554
0.5544
0.5534
0.5525
0.5515
0.5504
0.5493
0.5481
0.5467
0.5453
0.5439
0.5424
0.5409
0.5393
0.5378
0.5362
0.5346
0.533
0.5314
0.5299
0.5284
0.527
0.5257
0.5244
0.5231
0.5217
0.5202
0.5187
0.5171
0.5155
0.5138
0.5122
0.5106
0.509
0.5075
0.5059
0.5044
0.5029
0.5014
0.4999
0.4984
0.4969
0.4953
0.4937
0.492
0.4901
0.488
0.4858
0.4832
0.4804
0.4771
0.4735
0.4692
0.4644
0.4479
0.4855
0.5359
0.5914
0.6335
0.6513
0.6494
0.642
0.6362
0.6313
0.6267
0.6206
0.612
0.6014
0.5897
0.5776
0.5646
0.5509
0.5384
0.5283
0.5209
0.5172
0.516
0.5161
0.5179
0.5218
0.5265
0.5317
0.5373
0.543
0.5486
0.5539
0.5589
0.5636
0.568
0.5722
0.5747
0.5762
0.5771
0.5779
0.5792
0.5814
0.5833
0.5851
0.5866
0.5878
0.5889
0.5898
0.5905
0.5911
0.5916
0.592
0.5922
0.5923
0.5923
0.5922
0.592
0.5918
0.5915
0.5911
0.5907
0.5902
0.5897
0.5892
0.5887
0.5882
0.5876
0.587
0.5864
0.5857
0.585
0.5843
0.5835
0.5827
0.5818
0.5809
0.5799
0.5789
0.578
0.5774
0.577
0.5763
0.5752
0.5737
0.5715
0.5692
0.5669
0.5649
0.563
0.5616
0.5606
0.5597
0.5588
0.5578
0.5568
0.5558
0.5548
0.5537
0.5526
0.5515
0.5504
0.5493
0.5482
0.5473
0.5463
0.5455
0.5446
0.5438
0.5429
0.542
0.5409
0.5398
0.5386
0.5373
0.536
0.5346
0.5332
0.5318
0.5304
0.5289
0.5275
0.526
0.5245
0.5231
0.5218
0.5205
0.5193
0.5182
0.5171
0.516
0.5148
0.5135
0.5121
0.5107
0.5092
0.5077
0.5063
0.5049
0.5034
0.502
0.5006
0.4992
0.4978
0.4964
0.495
0.4935
0.4921
0.4905
0.4889
0.4872
0.4853
0.4833
0.4812
0.4788
0.4762
0.4733
0.47
0.4664
0.4621
0.4574
0.4595
0.5016
0.5524
0.6049
0.6421
0.6539
0.6535
0.6499
0.6492
0.6477
0.6437
0.636
0.6253
0.6122
0.5974
0.5816
0.5635
0.5444
0.5261
0.5114
0.5005
0.4944
0.4912
0.4893
0.4894
0.4916
0.4946
0.4984
0.5032
0.5082
0.5135
0.5191
0.5245
0.5298
0.5347
0.5395
0.5438
0.5478
0.5515
0.5548
0.5578
0.5604
0.5628
0.565
0.5669
0.5686
0.57
0.5712
0.5722
0.5731
0.5739
0.5745
0.575
0.5754
0.5756
0.5758
0.5758
0.5758
0.5757
0.5755
0.5753
0.575
0.5747
0.5744
0.574
0.5736
0.5731
0.5726
0.5721
0.5714
0.5708
0.5701
0.5693
0.5685
0.5677
0.5669
0.5661
0.5655
0.5651
0.5653
0.5657
0.5657
0.5647
0.5632
0.5611
0.5586
0.5562
0.554
0.5517
0.5497
0.5483
0.5469
0.5458
0.5448
0.5439
0.5429
0.5419
0.5409
0.54
0.539
0.5381
0.5372
0.5364
0.5356
0.5348
0.5342
0.5334
0.5326
0.5317
0.5307
0.5296
0.5285
0.5272
0.5259
0.5247
0.5234
0.5221
0.5208
0.5194
0.5181
0.5168
0.5155
0.5142
0.5131
0.512
0.5111
0.5102
0.5093
0.5083
0.5072
0.5061
0.5048
0.5035
0.5022
0.5009
0.4997
0.4984
0.4971
0.4959
0.4946
0.4933
0.492
0.4907
0.4894
0.488
0.4866
0.4851
0.4835
0.4819
0.4801
0.4782
0.4763
0.4741
0.4718
0.4691
0.4662
0.4629
0.4592
0.4549
0.4501
0.4729
0.5189
0.5674
0.6162
0.6481
0.658
0.6594
0.6608
0.6639
0.6636
0.6586
0.6498
0.6376
0.6226
0.6052
0.5856
0.5629
0.539
0.5164
0.4978
0.4846
0.477
0.4724
0.4693
0.4681
0.4684
0.4701
0.4729
0.4766
0.4807
0.4852
0.4904
0.4959
0.5017
0.5072
0.5125
0.5174
0.522
0.5263
0.5302
0.5337
0.5369
0.5399
0.5425
0.5449
0.5471
0.5489
0.5505
0.552
0.5534
0.5545
0.5555
0.5562
0.5569
0.5574
0.5579
0.5582
0.5584
0.5586
0.5587
0.5587
0.5587
0.5585
0.5583
0.5581
0.5578
0.5575
0.557
0.5565
0.5559
0.5554
0.5548
0.5541
0.5536
0.553
0.5526
0.5524
0.5527
0.5531
0.5541
0.5548
0.5553
0.5545
0.5532
0.5513
0.5489
0.5464
0.5437
0.541
0.5385
0.5364
0.5344
0.5326
0.5314
0.5303
0.5294
0.5286
0.5278
0.5271
0.5264
0.5257
0.525
0.5244
0.5237
0.5231
0.5224
0.5217
0.5208
0.5199
0.5188
0.5177
0.5165
0.5154
0.5142
0.513
0.5119
0.5107
0.5095
0.5083
0.5071
0.506
0.505
0.504
0.5032
0.5024
0.5017
0.5009
0.5001
0.4991
0.4981
0.497
0.4959
0.4947
0.4936
0.4925
0.4914
0.4903
0.4891
0.488
0.4869
0.4857
0.4845
0.4832
0.482
0.4806
0.4792
0.4777
0.4762
0.4745
0.4728
0.471
0.4691
0.467
0.4646
0.462
0.459
0.4556
0.4518
0.4475
0.4427
0.485
0.534
0.579
0.6248
0.6525
0.6642
0.6677
0.6737
0.6783
0.6774
0.6718
0.6622
0.6491
0.6326
0.6132
0.5899
0.5633
0.5357
0.5101
0.4889
0.4735
0.4627
0.4545
0.4485
0.4449
0.4437
0.444
0.4458
0.4483
0.4513
0.4547
0.4593
0.4644
0.4703
0.4765
0.4825
0.4881
0.4935
0.4985
0.5031
0.5073
0.5112
0.5148
0.5181
0.521
0.5237
0.5261
0.5282
0.5302
0.532
0.5335
0.5348
0.5359
0.5369
0.5378
0.5387
0.5393
0.5399
0.5403
0.5407
0.5409
0.5411
0.5411
0.5411
0.541
0.5408
0.5406
0.5403
0.54
0.5396
0.5393
0.5389
0.5384
0.5383
0.5384
0.539
0.5396
0.5408
0.5416
0.543
0.5437
0.5439
0.5431
0.542
0.5403
0.5381
0.5357
0.5331
0.5302
0.5273
0.5245
0.5219
0.5195
0.5179
0.5167
0.5159
0.5153
0.5147
0.5142
0.5138
0.5133
0.5128
0.5122
0.5116
0.5109
0.5103
0.5094
0.5085
0.5075
0.5065
0.5055
0.5044
0.5034
0.5023
0.5012
0.5002
0.4991
0.4981
0.4971
0.4963
0.4955
0.4948
0.4941
0.4935
0.4928
0.4922
0.4915
0.4907
0.4898
0.4888
0.4878
0.4869
0.4859
0.4849
0.484
0.483
0.482
0.481
0.48
0.4789
0.4778
0.4767
0.4755
0.4743
0.4729
0.4716
0.4702
0.4687
0.4672
0.4656
0.4638
0.4619
0.4598
0.4573
0.4546
0.4515
0.448
0.4441
0.4398
0.4347
0.4986
0.5469
0.5865
0.6309
0.6571
0.6708
0.6776
0.6865
0.6907
0.6895
0.6837
0.6737
0.6599
0.6423
0.6211
0.5948
0.5651
0.5341
0.5057
0.4814
0.4629
0.4477
0.4354
0.4259
0.4196
0.4163
0.4152
0.4162
0.4183
0.4207
0.4229
0.4262
0.4304
0.436
0.4425
0.4493
0.4558
0.462
0.4679
0.4734
0.4785
0.4832
0.4875
0.4915
0.4951
0.4984
0.5013
0.5041
0.5067
0.509
0.5111
0.5129
0.5145
0.5159
0.5172
0.5184
0.5194
0.5203
0.521
0.5216
0.5221
0.5225
0.5228
0.5231
0.5232
0.5232
0.5232
0.5232
0.5231
0.523
0.5228
0.5226
0.5227
0.5235
0.5246
0.5261
0.5276
0.5292
0.53
0.5308
0.531
0.5309
0.53
0.5289
0.5274
0.5254
0.5231
0.5207
0.5179
0.515
0.5122
0.5093
0.5065
0.5047
0.5033
0.5026
0.5022
0.5018
0.5015
0.5012
0.5008
0.5003
0.4997
0.4991
0.4984
0.4976
0.4967
0.4959
0.495
0.494
0.4931
0.4922
0.4913
0.4903
0.4894
0.4885
0.4877
0.487
0.4864
0.4858
0.4853
0.4849
0.4843
0.4839
0.4833
0.4826
0.4819
0.4812
0.4803
0.4795
0.4787
0.4779
0.4771
0.4763
0.4754
0.4746
0.4737
0.4728
0.4718
0.4709
0.4698
0.4688
0.4676
0.4664
0.4652
0.464
0.4627
0.4614
0.4599
0.4584
0.4566
0.4546
0.4524
0.4499
0.447
0.4438
0.4402
0.4363
0.4316
0.4257
0.5127
0.5566
0.5922
0.6348
0.6602
0.676
0.6869
0.6976
0.7016
0.7003
0.6943
0.6842
0.67
0.6516
0.629
0.6002
0.5679
0.5339
0.5022
0.4743
0.4519
0.4317
0.4145
0.4011
0.3916
0.3858
0.3832
0.3832
0.3846
0.3868
0.3889
0.3911
0.3943
0.399
0.4052
0.4124
0.42
0.4273
0.4343
0.4409
0.447
0.4527
0.458
0.4629
0.4673
0.4714
0.4751
0.4786
0.4818
0.4847
0.4874
0.4897
0.4918
0.4937
0.4955
0.4971
0.4986
0.4999
0.501
0.5019
0.5026
0.5033
0.504
0.5045
0.505
0.5053
0.5055
0.5058
0.506
0.506
0.5064
0.5069
0.5079
0.5097
0.5117
0.5139
0.5156
0.5167
0.517
0.517
0.5164
0.5154
0.514
0.5125
0.5109
0.5093
0.5075
0.5058
0.5037
0.5015
0.4989
0.4961
0.4935
0.4915
0.4902
0.4895
0.4893
0.489
0.4887
0.4884
0.4881
0.4875
0.4869
0.4862
0.4855
0.4848
0.484
0.4832
0.4825
0.4817
0.4809
0.4801
0.4794
0.4787
0.478
0.4775
0.4769
0.4765
0.4761
0.4759
0.4755
0.4752
0.4747
0.4743
0.4737
0.4731
0.4725
0.4718
0.4711
0.4705
0.4698
0.4691
0.4684
0.4677
0.467
0.4662
0.4654
0.4646
0.4637
0.4628
0.4619
0.461
0.4599
0.4589
0.4578
0.4567
0.4555
0.4542
0.4527
0.4511
0.4493
0.4472
0.4448
0.4421
0.4391
0.4359
0.4319
0.4273
0.4217
0.4148
0.5252
0.5635
0.5974
0.6378
0.6648
0.6824
0.6967
0.7072
0.7112
0.7099
0.704
0.6938
0.6793
0.6604
0.6367
0.6062
0.5716
0.535
0.4999
0.4682
0.4416
0.4165
0.3943
0.376
0.362
0.3524
0.3471
0.3454
0.3462
0.3484
0.3509
0.3534
0.3557
0.3595
0.365
0.3722
0.3805
0.3892
0.3975
0.4055
0.4129
0.4199
0.4264
0.4324
0.4379
0.443
0.4476
0.4519
0.4559
0.4595
0.4628
0.4658
0.4684
0.4708
0.4731
0.4752
0.4771
0.4789
0.4804
0.4816
0.4828
0.4838
0.4848
0.4858
0.4865
0.4872
0.4877
0.4881
0.4885
0.4891
0.4904
0.492
0.4942
0.4967
0.4991
0.5009
0.5021
0.5024
0.502
0.5012
0.5
0.4987
0.4972
0.4958
0.4943
0.4928
0.4911
0.4895
0.4878
0.486
0.484
0.4818
0.4797
0.478
0.477
0.4765
0.4764
0.4762
0.4759
0.4755
0.475
0.4745
0.4739
0.4733
0.4727
0.4721
0.4714
0.4708
0.4702
0.4695
0.4689
0.4684
0.468
0.4677
0.4673
0.467
0.4667
0.4665
0.4664
0.4662
0.4659
0.4656
0.4652
0.4648
0.4643
0.4637
0.4632
0.4627
0.4622
0.4617
0.4611
0.4605
0.46
0.4594
0.4587
0.4581
0.4574
0.4566
0.4558
0.4551
0.4543
0.4535
0.4526
0.4517
0.4506
0.4496
0.4484
0.447
0.4455
0.4438
0.4417
0.4395
0.437
0.4342
0.4312
0.4275
0.4225
0.4169
0.4102
0.4029
0.5334
0.5673
0.6004
0.6406
0.6686
0.6878
0.7051
0.7156
0.7196
0.7184
0.7127
0.7026
0.688
0.6687
0.6443
0.6128
0.5765
0.5376
0.4995
0.464
0.4328
0.4027
0.3753
0.3517
0.3329
0.3199
0.3117
0.3075
0.3066
0.3079
0.3104
0.3132
0.316
0.3187
0.3229
0.3291
0.3371
0.3467
0.3567
0.3663
0.3754
0.384
0.392
0.3995
0.4063
0.4127
0.4185
0.4238
0.4286
0.4331
0.4371
0.4408
0.4441
0.4472
0.45
0.4527
0.4553
0.4575
0.4595
0.4612
0.4627
0.4642
0.4655
0.4667
0.4678
0.4687
0.4694
0.4705
0.4717
0.4734
0.4758
0.4784
0.4812
0.4838
0.4856
0.4865
0.4869
0.4864
0.4854
0.4843
0.4832
0.4821
0.4808
0.4795
0.478
0.4766
0.475
0.4734
0.4716
0.4699
0.4681
0.4661
0.4646
0.4636
0.4633
0.4633
0.4635
0.4632
0.4629
0.4625
0.462
0.4616
0.4612
0.4607
0.4602
0.4597
0.4592
0.4588
0.4584
0.4581
0.4578
0.4576
0.4575
0.4574
0.4574
0.4572
0.4571
0.457
0.4569
0.4568
0.4565
0.4562
0.4559
0.4555
0.4551
0.4548
0.4544
0.454
0.4536
0.4532
0.4528
0.4523
0.4518
0.4513
0.4508
0.4502
0.4496
0.4489
0.4484
0.4477
0.4471
0.4464
0.4457
0.4447
0.4437
0.4425
0.4413
0.4398
0.4381
0.4362
0.4341
0.4317
0.4292
0.4259
0.4221
0.4173
0.4112
0.4047
0.3978
0.3912
0.5404
0.5716
0.6041
0.6442
0.6728
0.6932
0.7123
0.7229
0.7271
0.7261
0.7205
0.7105
0.696
0.6765
0.6515
0.6193
0.5817
0.541
0.5002
0.4614
0.4259
0.3909
0.3581
0.3294
0.3075
0.2917
0.2811
0.2746
0.2714
0.2711
0.2728
0.2755
0.2784
0.281
0.2837
0.2882
0.2946
0.303
0.313
0.3233
0.3337
0.344
0.3539
0.3631
0.3717
0.3797
0.3869
0.3936
0.3997
0.4053
0.4103
0.4149
0.4191
0.423
0.4266
0.4299
0.433
0.4357
0.4382
0.4404
0.4424
0.4442
0.4459
0.4474
0.4488
0.45
0.4513
0.4534