/*--------------------------------*- C++ -*----------------------------------*\
| =========                 |                                                 |
| \\      /  F ield         | OpenFOAM: The Open Source CFD Toolbox           |
|  \\    /   O peration     | Version:  5.x                                   |
|   \\  /    A nd           | Web:      www.OpenFOAM.org                      |
|    \\/     M anipulation  |                                                 |
\*---------------------------------------------------------------------------*/
FoamFile
{
    version     2.0;
    format      ascii;
    class       volScalarField;
    location    "58";
    object      gamma;
}
// * * * * * * * * * * * * * * * * * * * * * * * * * * * * * * * * * * * * * //

dimensions      [0 0 0 0 0 0 0];

internalField   nonuniform List<scalar> 
80000
(
1
1
1
1
1
1
1
1
1
1
1
1
1
1
1
1
1
1
1
1
1
1
1
1
1
1
1
1
1
1
1
1
1
1
1
1
1
1
1
1
1
1
1
1
1
1
1
1
1
1
1
1
1
1
1
1
1
1
1
1
1
1
1
1
1
1
1
1
1
1
1
1
1
1
1
1
1
1
1
1
1
1
1
1
1
1
1
1
1
1
1
1
1
1
1
1
1
1
1
1
1
1
1
1
1
1
1
1
1
0.99999
0.99999
0.99999
0.99999
0.99999
0.99999
0.99999
0.99999
0.99999
0.99999
0.99999
0.99999
0.99999
0.99999
0.99999
0.99999
0.99999
0.99999
0.99999
0.99999
0.99999
0.99999
0.99999
0.99999
0.99999
0.99999
0.99999
0.99999
0.99999
0.99999
0.99999
0.99999
0.99999
0.99999
0.99999
0.99999
0.99999
0.99999
0.99999
0.99999
0.99999
0.99999
0.99999
0.99999
0.99999
0.99999
0.99999
0.99999
0.99999
0.99999
0.99999
0.99999
1
1
1
1
1
1
1
1
1
1
1
1
1
1
1
1
1
1
1
1
1
1
1
1
1
1
1
1
1
1
1
1
1
1
1
1
1
1
1
1
1
1
1
1
1
1
1
1
0.99999
0.99999
0.99999
0.99999
0.99999
0.99999
0.99999
0.99999
0.99999
0.99999
0.99999
0.99999
0.99999
0.99999
0.99999
0.99999
0.99999
0.99999
0.99999
0.99999
0.99999
0.99999
0.99999
0.99999
0.99999
0.99999
0.99999
0.99999
0.99999
0.99999
0.99999
0.99999
0.99999
0.99999
0.99999
0.99999
0.99999
0.99999
0.99999
0.99999
0.99999
0.99999
0.99999
0.99998
0.99998
0.99996
0.99993
0.99988
0.99983
0.99978
0.99962
0.99882
0.99216
0.91006
0.11627
0.002771
0.00015276
2.0931e-05
4.4289e-06
1.5465e-06
8.6848e-07
9.9079e-07
1.953e-06
5.5201e-06
1.4521e-05
2.965e-05
3.8134e-05
3.6834e-05
3.7618e-05
5.6254e-05
0.00010197
0.00022
0.00034766
0.00047873
0.00053449
0.00037467
0.00021849
0.00010355
6.5516e-05
5.8981e-05
7.9975e-05
8.5866e-05
8.4616e-05
8.2017e-05
7.9649e-05
7.7461e-05
7.6032e-05
7.536e-05
7.4967e-05
7.488e-05
7.429e-05
7.3359e-05
7.2131e-05
7.0814e-05
6.9769e-05
6.902e-05
6.8478e-05
6.8257e-05
6.7899e-05
6.6706e-05
6.4548e-05
6.1837e-05
6.1023e-05
6.7374e-05
9.246e-05
0.00012232
7.4758e-05
3.3448e-05
1.1731e-05
6.0484e-06
4.9945e-06
6.9854e-06
7.4978e-06
7.2808e-06
6.998e-06
6.821e-06
6.7184e-06
6.6272e-06
6.5322e-06
6.4358e-06
6.341e-06
6.2489e-06
6.1593e-06
6.0718e-06
5.9863e-06
5.9028e-06
5.8211e-06
5.7411e-06
5.6629e-06
5.5865e-06
5.5116e-06
5.4385e-06
5.3671e-06
5.2973e-06
5.2292e-06
5.1629e-06
5.0983e-06
5.0356e-06
4.9747e-06
4.9157e-06
4.8586e-06
4.8035e-06
4.7505e-06
4.6995e-06
4.6507e-06
4.604e-06
4.5596e-06
4.5174e-06
4.4775e-06
4.4399e-06
4.4045e-06
4.3715e-06
4.3409e-06
4.3124e-06
4.2863e-06
4.2624e-06
4.2407e-06
4.2211e-06
4.2035e-06
4.188e-06
4.1743e-06
4.1624e-06
4.1522e-06
4.1436e-06
4.1364e-06
4.1306e-06
4.1259e-06
4.1224e-06
4.1197e-06
4.1179e-06
4.1167e-06
4.1161e-06
4.1159e-06
4.116e-06
4.1163e-06
4.1167e-06
4.1172e-06
4.118e-06
4.1194e-06
4.1199e-06
4.115e-06
4.1001e-06
4.0961e-06
4.1537e-06
4.3138e-06
4.386e-06
3.6426e-06
3.0185e-06
3.4447e-06
4.0858e-06
5.8973e-06
1
1
1
1
1
1
1
1
1
1
1
1
1
1
1
1
1
1
1
1
1
1
1
1
1
1
1
1
1
1
1
1
1
1
1
1
1
1
1
1
1
1
1
1
1
1
1
1
1
1
1
1
1
1
1
1
1
1
1
1
1
1
1
1
1
1
1
1
1
1
1
1
1
1
1
1
1
1
1
1
1
1
1
1
1
1
1
1
1
1
1
1
1
1
1
1
1
1
1
1
1
1
1
1
1
1
1
1
1
1
1
1
1
1
1
1
1
1
1
1
1
1
1
1
1
1
1
1
1
1
1
1
0.99999
0.99999
0.99999
0.99999
0.99999
0.99999
0.99999
0.99999
0.99999
0.99999
0.99999
1
1
1
1
1
1
1
1
1
1
1
1
1
1
1
1
1
1
1
1
1
1
1
1
1
1
1
1
1
1
1
1
1
1
1
1
1
1
1
1
1
1
1
1
1
1
1
1
1
1
1
1
1
1
1
1
1
1
1
1
1
1
1
1
1
1
1
1
1
1
1
1
1
1
1
1
0.99999
0.99999
0.99999
0.99999
0.99999
0.99999
0.99999
0.99999
0.99999
0.99999
0.99999
0.99999
0.99999
0.99999
0.99999
0.99999
0.99999
0.99999
0.99999
0.99999
0.99999
0.99999
0.99999
0.99999
0.99999
0.99999
0.99999
0.99999
0.99999
0.99999
0.99999
0.99999
0.99999
0.99999
0.99998
0.99998
0.99996
0.99993
0.9999
0.99984
0.99971
0.99928
0.99727
0.98542
0.90977
0.50066
0.045551
0.0053711
0.00062225
8.6178e-05
1.5716e-05
5.4153e-06
3.4062e-06
3.7077e-06
5.0101e-06
7.0096e-06
9.7859e-06
1.5043e-05
2.7549e-05
6.2839e-05
0.00015105
0.00026074
0.00036094
0.00040471
0.0003555
0.00021726
0.00011873
6.1544e-05
4.6771e-05
4.7955e-05
6.2374e-05
6.5979e-05
6.4675e-05
6.2417e-05
6.0577e-05
5.9199e-05
5.8402e-05
5.8022e-05
5.7822e-05
5.7316e-05
5.6591e-05
5.5731e-05
5.4752e-05
5.3788e-05
5.3099e-05
5.2581e-05
5.2265e-05
5.1913e-05
5.1387e-05
5.0184e-05
4.8432e-05
4.6779e-05
4.7754e-05
5.6128e-05
6.6572e-05
6.3551e-05
3.3079e-05
1.4116e-05
5.7199e-06
3.8183e-06
3.7505e-06
5.0128e-06
5.2799e-06
5.1067e-06
4.9117e-06
4.7912e-06
4.719e-06
4.6538e-06
4.5863e-06
4.5182e-06
4.4515e-06
4.3867e-06
4.3237e-06
4.2623e-06
4.2023e-06
4.1437e-06
4.0865e-06
4.0304e-06
3.9756e-06
3.922e-06
3.8695e-06
3.8182e-06
3.7681e-06
3.7191e-06
3.6713e-06
3.6247e-06
3.5793e-06
3.5351e-06
3.4923e-06
3.4507e-06
3.4104e-06
3.3716e-06
3.3341e-06
3.298e-06
3.2635e-06
3.2304e-06
3.1989e-06
3.1688e-06
3.1404e-06
3.1136e-06
3.0883e-06
3.0646e-06
3.0426e-06
3.0221e-06
3.0032e-06
2.9858e-06
2.9699e-06
2.9555e-06
2.9426e-06
2.931e-06
2.9207e-06
2.9116e-06
2.9038e-06
2.897e-06
2.8913e-06
2.8865e-06
2.8826e-06
2.8794e-06
2.8769e-06
2.875e-06
2.8736e-06
2.8726e-06
2.872e-06
2.8716e-06
2.8715e-06
2.8714e-06
2.8715e-06
2.8719e-06
2.8727e-06
2.873e-06
2.8694e-06
2.8587e-06
2.8561e-06
2.898e-06
3.0135e-06
3.0642e-06
2.5264e-06
2.0831e-06
2.4001e-06
2.8449e-06
4.0858e-06
1
1
1
1
1
1
1
1
1
1
1
1
1
1
1
1
1
1
1
1
1
1
1
1
1
1
1
1
1
1
1
1
1
1
1
1
1
1
1
1
1
1
1
1
1
1
1
1
1
1
1
1
1
1
1
1
1
1
1
1
1
1
1
1
1
1
1
1
1
1
1
1
1
1
1
1
1
1
1
1
1
1
1
1
1
1
1
1
1
1
1
1
1
1
1
1
1
1
1
1
1
1
1
1
1
1
1
1
1
1
1
1
1
1
1
1
1
1
1
1
1
1
1
1
1
1
1
1
1
1
1
1
1
1
1
1
1
1
1
1
1
1
1
1
1
1
1
1
1
1
1
1
1
1
1
1
1
1
1
1
1
1
1
1
1
1
1
1
1
1
1
1
1
1
1
1
1
1
1
1
1
1
1
1
1
1
1
1
1
1
1
1
1
1
1
1
1
1
1
1
1
1
1
1
1
1
1
1
1
1
1
1
1
1
1
1
1
1
1
1
1
1
0.99999
0.99999
0.99999
0.99999
0.99999
0.99999
0.99999
0.99999
0.99999
0.99999
0.99999
0.99999
0.99999
0.99999
0.99999
0.99999
0.99999
0.99999
0.99999
0.99999
0.99999
0.99999
0.99999
0.99999
0.99999
0.99999
0.99999
0.99999
0.99999
0.99999
0.99999
0.99999
0.99998
0.99998
0.99996
0.99994
0.99991
0.99987
0.99976
0.99944
0.99814
0.9928
0.97388
0.91521
0.75049
0.20241
0.018589
0.001468
0.00017013
3.1255e-05
9.7202e-06
4.2954e-06
2.9525e-06
3.3997e-06
6.5116e-06
1.8396e-05
6.5058e-05
0.000167
0.00029836
0.00036987
0.00033163
0.00023201
0.00012687
6.4808e-05
4.5023e-05
4.1271e-05
4.6385e-05
5.6655e-05
5.8617e-05
5.6928e-05
5.4885e-05
5.3397e-05
5.2443e-05
5.1932e-05
5.169e-05
5.1214e-05
5.0547e-05
4.9756e-05
4.8901e-05
4.8083e-05
4.733e-05
4.6804e-05
4.637e-05
4.6054e-05
4.5612e-05
4.4922e-05
4.361e-05
4.2043e-05
4.1372e-05
4.447e-05
5.6851e-05
5.726e-05
4.1189e-05
1.8329e-05
6.8318e-06
3.4962e-06
3.0821e-06
3.4684e-06
4.3321e-06
4.4473e-06
4.2859e-06
4.1322e-06
4.038e-06
3.9782e-06
3.9229e-06
3.8659e-06
3.8088e-06
3.753e-06
3.699e-06
3.6465e-06
3.5954e-06
3.5455e-06
3.4968e-06
3.4491e-06
3.4025e-06
3.357e-06
3.3124e-06
3.2687e-06
3.226e-06
3.1843e-06
3.1435e-06
3.1037e-06
3.0648e-06
3.0269e-06
2.9901e-06
2.9542e-06
2.9194e-06
2.8857e-06
2.8531e-06
2.8216e-06
2.7913e-06
2.7622e-06
2.7343e-06
2.7076e-06
2.6822e-06
2.6581e-06
2.6352e-06
2.6137e-06
2.5934e-06
2.5745e-06
2.5568e-06
2.5404e-06
2.5253e-06
2.5114e-06
2.4988e-06
2.4873e-06
2.4769e-06
2.4676e-06
2.4593e-06
2.4521e-06
2.4457e-06
2.4402e-06
2.4355e-06
2.4315e-06
2.4281e-06
2.4254e-06
2.4231e-06
2.4214e-06
2.42e-06
2.419e-06
2.4182e-06
2.4177e-06
2.4173e-06
2.4171e-06
2.4172e-06
2.4177e-06
2.4178e-06
2.4147e-06
2.4055e-06
2.4033e-06
2.4393e-06
2.5381e-06
2.5815e-06
2.1218e-06
1.7426e-06
2.0169e-06
2.4001e-06
3.4447e-06
1
1
1
1
1
1
1
1
1
1
1
1
1
1
1
1
1
1
1
1
1
1
1
1
1
1
1
1
1
1
1
1
1
1
1
1
1
1
1
1
1
1
1
1
1
1
1
1
1
1
1
1
1
1
1
1
1
1
1
1
1
1
1
1
1
1
1
1
1
1
1
1
1
1
1
1
1
1
1
1
1
1
1
1
1
1
1
1
1
1
1
1
1
1
1
1
1
1
1
1
1
1
1
1
1
1
1
1
1
1
1
1
1
1
1
1
1
1
1
1
1
1
1
1
1
1
1
1
1
1
1
1
1
1
1
1
1
1
1
1
1
1
1
1
1
1
1
1
1
1
1
1
1
1
1
1
1
1
1
1
1
1
1
1
1
1
1
1
1
1
1
1
1
1
1
1
1
1
1
1
1
1
1
1
1
1
1
1
1
1
1
1
1
1
1
1
1
1
1
1
1
1
1
1
1
1
1
1
1
1
1
1
1
1
1
1
1
1
1
1
1
1
0.99999
0.99999
0.99999
0.99999
0.99999
0.99999
0.99999
0.99999
0.99999
0.99999
0.99999
0.99999
0.99999
0.99999
0.99999
0.99999
0.99999
0.99999
0.99999
0.99999
0.99999
0.99999
0.99999
0.99999
0.99999
0.99999
0.99999
0.99999
0.99999
0.99999
0.99999
0.99999
0.99999
0.99998
0.99998
0.99997
0.99996
0.99995
0.99994
0.99992
0.99988
0.9998
0.99959
0.99907
0.99757
0.99074
0.94598
0.58744
0.026773
0.0012772
0.00010021
1.3819e-05
3.6561e-06
2.2851e-06
3.4947e-06
1.1311e-05
4.2549e-05
0.00013187
0.00025033
0.00028023
0.00021007
0.0001217
6.1197e-05
4.1295e-05
3.678e-05
4.0221e-05
4.7927e-05
5.344e-05
5.3314e-05
5.123e-05
4.9395e-05
4.8213e-05
4.7619e-05
4.7402e-05
4.7068e-05
4.6417e-05
4.5625e-05
4.4748e-05
4.3948e-05
4.3306e-05
4.2735e-05
4.2343e-05
4.2007e-05
4.1572e-05
4.1033e-05
4.014e-05
3.8673e-05
3.7313e-05
3.7933e-05
4.4201e-05
5.2998e-05
3.9803e-05
2e-05
7.1395e-06
3.3033e-06
2.3108e-06
2.7312e-06
3.4219e-06
3.8763e-06
3.8435e-06
3.6913e-06
3.574e-06
3.5021e-06
3.4515e-06
3.403e-06
3.3534e-06
3.3041e-06
3.2562e-06
3.2098e-06
3.1649e-06
3.1211e-06
3.0784e-06
3.0368e-06
2.9962e-06
2.9564e-06
2.9175e-06
2.8794e-06
2.8422e-06
2.8058e-06
2.7701e-06
2.7353e-06
2.7012e-06
2.6679e-06
2.6355e-06
2.6038e-06
2.5731e-06
2.5431e-06
2.5141e-06
2.486e-06
2.4588e-06
2.4326e-06
2.4073e-06
2.3831e-06
2.3598e-06
2.3376e-06
2.3165e-06
2.2964e-06
2.2774e-06
2.2594e-06
2.2426e-06
2.2268e-06
2.212e-06
2.1984e-06
2.1857e-06
2.174e-06
2.1634e-06
2.1536e-06
2.1448e-06
2.1369e-06
2.1297e-06
2.1234e-06
2.1178e-06
2.1128e-06
2.1085e-06
2.1048e-06
2.1016e-06
2.099e-06
2.0967e-06
2.0948e-06
2.0933e-06
2.092e-06
2.0911e-06
2.0903e-06
2.0897e-06
2.0895e-06
2.0897e-06
2.0897e-06
2.0868e-06
2.0787e-06
2.0768e-06
2.1086e-06
2.1953e-06
2.2329e-06
1.8296e-06
1.4982e-06
1.7426e-06
2.0831e-06
3.0185e-06
1
1
1
1
1
1
1
1
1
1
1
1
1
1
1
1
1
1
1
1
1
1
1
1
1
1
1
1
1
1
1
1
1
1
1
1
1
1
1
1
1
1
1
1
1
1
1
1
1
1
1
1
1
1
1
1
1
1
1
1
1
1
1
1
1
1
1
1
1
1
1
1
1
1
1
1
1
1
1
1
1
1
1
1
1
1
1
1
1
1
1
1
1
0.99999
0.99999
0.99999
0.99999
0.99999
0.99999
0.99999
0.99999
1
1
1
1
1
1
1
1
1
1
1
0.99999
0.99999
0.99999
0.99999
0.99999
0.99999
0.99999
0.99999
0.99999
0.99999
0.99999
0.99999
0.99999
0.99999
0.99999
0.99999
0.99999
0.99999
0.99999
0.99999
0.99999
0.99999
0.99999
0.99999
0.99999
0.99999
0.99999
0.99999
0.99999
0.99999
0.99999
0.99999
0.99999
0.99999
0.99999
0.99999
0.99999
0.99999
0.99999
0.99999
0.99999
0.99999
0.99999
0.99999
0.99999
0.99999
0.99999
1
1
1
1
1
1
1
1
1
1
1
1
1
1
1
1
1
1
1
1
1
1
1
1
1
1
1
1
1
1
1
1
1
1
1
1
1
1
1
1
1
1
1
1
1
1
1
1
1
1
0.99999
0.99999
0.99999
0.99999
0.99999
0.99999
0.99999
0.99999
0.99999
0.99999
0.99999
0.99999
0.99999
0.99999
0.99999
0.99999
0.99999
0.99999
0.99999
0.99999
0.99999
0.99999
0.99999
0.99999
0.99999
0.99999
0.99999
0.99999
0.99999
0.99999
0.99999
0.99999
0.99999
0.99999
0.99999
0.99999
0.99999
0.99999
0.99999
0.99999
0.99998
0.99998
0.99998
0.99998
0.99998
0.99998
0.99998
0.99998
0.99998
0.99998
0.99998
0.99998
0.99998
0.99998
0.99998
0.99997
0.99996
0.99993
0.99984
0.99928
0.99494
0.95849
0.62624
0.024401
0.0010752
7.1442e-05
1.0875e-05
6.645e-06
9.8305e-06
2.3744e-05
5.6354e-05
9.4676e-05
0.00010684
8.8554e-05
5.4774e-05
4.1496e-05
3.9363e-05
4.4575e-05
5.4873e-05
6.4127e-05
6.536e-05
6.3029e-05
5.9995e-05
5.7919e-05
5.6749e-05
5.6328e-05
5.5918e-05
5.5363e-05
5.4325e-05
5.3245e-05
5.228e-05
5.1542e-05
5.0928e-05
5.0387e-05
4.9936e-05
4.9358e-05
4.8732e-05
4.8011e-05
4.6756e-05
4.4876e-05
4.3522e-05
4.6073e-05
5.8533e-05
5.8948e-05
3.3086e-05
1.2939e-05
4.5677e-06
2.4945e-06
2.5282e-06
3.7091e-06
4.6809e-06
4.8175e-06
4.632e-06
4.4452e-06
4.3266e-06
4.2517e-06
4.1919e-06
4.1327e-06
4.0729e-06
4.014e-06
3.9568e-06
3.9015e-06
3.8479e-06
3.7957e-06
3.7449e-06
3.6953e-06
3.647e-06
3.5997e-06
3.5535e-06
3.5083e-06
3.464e-06
3.4207e-06
3.3784e-06
3.337e-06
3.2964e-06
3.2569e-06
3.2182e-06
3.1805e-06
3.1438e-06
3.108e-06
3.0733e-06
3.0396e-06
3.007e-06
2.9755e-06
2.9451e-06
2.9158e-06
2.8877e-06
2.8608e-06
2.8351e-06
2.8106e-06
2.7874e-06
2.7653e-06
2.7445e-06
2.725e-06
2.7066e-06
2.6895e-06
2.6735e-06
2.6587e-06
2.6451e-06
2.6325e-06
2.621e-06
2.6105e-06
2.6009e-06
2.5923e-06
2.5846e-06
2.5777e-06
2.5715e-06
2.5661e-06
2.5613e-06
2.5572e-06
2.5536e-06
2.5505e-06
2.5479e-06
2.5457e-06
2.5438e-06
2.5423e-06
2.5412e-06
2.5405e-06
2.5405e-06
2.5401e-06
2.5365e-06
2.5267e-06
2.5243e-06
2.5623e-06
2.6661e-06
2.7113e-06
2.2286e-06
1.8296e-06
2.1218e-06
2.5264e-06
3.6426e-06
1
1
1
1
1
1
1
1
1
1
1
1
1
1
1
1
1
1
1
1
1
1
1
1
1
1
1
1
1
1
1
1
1
1
1
1
1
1
1
1
1
1
1
1
1
1
1
1
1
1
1
1
1
1
1
1
1
1
1
1
1
1
1
1
1
1
1
1
1
1
1
1
1
1
1
1
1
1
1
1
1
1
1
1
1
1
1
0.99999
0.99999
0.99999
0.99999
0.99999
0.99999
0.99999
0.99999
0.99999
0.99999
0.99999
0.99999
0.99999
0.99999
0.99999
0.99999
0.99999
0.99999
0.99999
0.99999
0.99999
0.99999
0.99999
0.99999
0.99999
0.99999
0.99999
0.99999
0.99999
0.99999
0.99999
0.99999
0.99999
0.99999
0.99999
0.99999
0.99999
0.99999
0.99999
0.99999
0.99999
0.99999
0.99999
0.99999
0.99999
0.99999
0.99999
0.99999
0.99999
0.99999
0.99999
0.99999
0.99999
0.99999
0.99999
0.99999
0.99999
0.99999
0.99999
0.99999
0.99999
0.99999
0.99999
0.99999
0.99999
0.99999
0.99999
0.99999
0.99999
0.99999
0.99999
0.99999
0.99999
0.99999
0.99999
0.99999
0.99999
0.99999
0.99999
0.99999
0.99999
0.99999
0.99999
0.99999
0.99999
0.99999
0.99999
0.99999
0.99999
0.99999
0.99999
0.99999
0.99999
0.99999
0.99999
0.99999
0.99999
0.99999
0.99999
0.99999
0.99999
0.99999
0.99999
0.99999
0.99999
0.99999
0.99999
0.99999
0.99999
0.99999
0.99999
0.99999
0.99999
0.99999
0.99999
0.99999
0.99999
0.99999
0.99999
0.99999
0.99999
0.99999
0.99999
0.99999
0.99999
0.99999
0.99999
0.99999
0.99999
0.99999
0.99999
0.99999
0.99999
0.99999
0.99999
0.99999
0.99999
0.99999
0.99999
0.99999
0.99999
0.99999
0.99999
0.99999
0.99999
0.99999
0.99999
0.99999
0.99999
0.99999
0.99999
0.99999
0.99999
0.99999
0.99999
0.99998
0.99998
0.99998
0.99998
0.99998
0.99998
0.99998
0.99998
0.99998
0.99998
0.99998
0.99998
0.99998
0.99998
0.99998
0.99998
0.99998
0.99998
0.99999
0.99999
0.99999
0.99999
0.99999
0.99999
0.99999
0.99999
0.99996
0.99988
0.99936
0.99541
0.9549
0.54291
0.013866
0.00054279
6.7586e-05
2.4864e-05
1.9736e-05
1.9183e-05
1.954e-05
1.9141e-05
1.7984e-05
2.0362e-05
2.8777e-05
4.3673e-05
6.286e-05
7.8773e-05
8.1977e-05
7.9243e-05
7.5019e-05
7.1079e-05
6.8733e-05
6.7454e-05
6.6786e-05
6.6045e-05
6.5173e-05
6.3683e-05
6.2326e-05
6.1374e-05
6.0652e-05
6.0072e-05
5.9602e-05
5.8984e-05
5.816e-05
5.7369e-05
5.649e-05
5.4868e-05
5.255e-05
5.1337e-05
5.6311e-05
7.6819e-05
6.0651e-05
2.6864e-05
8.9167e-06
3.9566e-06
2.6633e-06
3.813e-06
5.6902e-06
6.2275e-06
5.9948e-06
5.652e-06
5.4245e-06
5.2945e-06
5.2065e-06
5.1297e-06
5.0543e-06
4.9802e-06
4.9082e-06
4.8386e-06
4.7711e-06
4.7055e-06
4.6416e-06
4.5794e-06
4.5188e-06
4.4597e-06
4.402e-06
4.3456e-06
4.2905e-06
4.2366e-06
4.1839e-06
4.1323e-06
4.0819e-06
4.0326e-06
3.9844e-06
3.9374e-06
3.8915e-06
3.8468e-06
3.8032e-06
3.7609e-06
3.7198e-06
3.6799e-06
3.6414e-06
3.6042e-06
3.5683e-06
3.5338e-06
3.5007e-06
3.469e-06
3.4387e-06
3.4099e-06
3.3825e-06
3.3565e-06
3.3321e-06
3.309e-06
3.2874e-06
3.2671e-06
3.2482e-06
3.2307e-06
3.2144e-06
3.1994e-06
3.1856e-06
3.173e-06
3.1615e-06
3.151e-06
3.1415e-06
3.1329e-06
3.1253e-06
3.1185e-06
3.1124e-06
3.1071e-06
3.1024e-06
3.0984e-06
3.0949e-06
3.0919e-06
3.0894e-06
3.0875e-06
3.0861e-06
3.0856e-06
3.0849e-06
3.0802e-06
3.0682e-06
3.0652e-06
3.1104e-06
3.2344e-06
3.2886e-06
2.7113e-06
2.2329e-06
2.5815e-06
3.0642e-06
4.386e-06
1
1
1
1
1
1
1
1
1
1
1
1
1
1
1
1
1
1
1
1
1
1
1
1
1
1
1
1
1
1
1
1
1
1
1
1
1
1
1
1
1
1
1
1
1
1
1
1
1
1
1
1
1
1
1
1
1
1
1
1
1
1
1
1
1
1
1
1
1
1
1
1
1
1
1
1
1
1
1
1
1
1
1
0.99999
0.99999
0.99999
0.99999
0.99999
0.99999
0.99999
0.99999
0.99999
0.99999
0.99999
0.99999
0.99999
0.99999
0.99999
0.99999
0.99999
0.99999
0.99999
0.99999
0.99999
0.99999
0.99999
0.99999
0.99999
0.99999
0.99999
0.99999
0.99999
0.99999
0.99999
0.99999
0.99999
0.99999
0.99999
0.99999
0.99999
0.99999
0.99999
0.99999
0.99999
0.99999
0.99999
0.99999
0.99999
0.99999
0.99999
0.99999
0.99999
0.99999
0.99999
0.99999
0.99999
0.99999
0.99999
0.99999
0.99999
0.99999
0.99999
0.99999
0.99999
0.99999
0.99999
0.99999
0.99999
0.99999
0.99999
0.99999
0.99999
0.99999
0.99999
0.99999
0.99999
0.99999
0.99999
0.99999
0.99999
0.99999
0.99999
0.99999
0.99999
0.99999
0.99999
0.99999
0.99999
0.99999
0.99999
0.99999
0.99999
0.99999
0.99999
0.99999
0.99999
0.99999
0.99999
0.99999
0.99999
0.99999
0.99999
0.99999
0.99999
0.99999
0.99999
0.99999
0.99999
0.99999
0.99999
0.99999
0.99999
0.99999
0.99999
0.99999
0.99999
0.99999
0.99999
0.99999
0.99999
0.99999
0.99999
0.99999
0.99999
0.99999
0.99999
0.99999
0.99999
0.99999
0.99999
0.99999
0.99999
0.99999
0.99999
0.99999
0.99999
0.99999
0.99999
0.99999
0.99999
0.99999
0.99999
0.99999
0.99999
0.99999
0.99999
0.99999
0.99999
0.99999
0.99999
0.99999
0.99999
0.99999
0.99999
0.99999
0.99999
0.99999
0.99998
0.99998
0.99998
0.99998
0.99998
0.99998
0.99998
0.99998
0.99998
0.99998
0.99998
0.99998
0.99998
0.99998
0.99998
0.99998
0.99998
0.99998
0.99998
0.99998
0.99998
0.99998
0.99999
0.99999
0.99999
0.99999
0.99999
0.99999
0.99999
0.99999
0.99999
0.99999
0.99999
0.99997
0.99986
0.99911
0.992
0.91164
0.16134
0.0054696
0.00039017
6.1753e-05
1.5528e-05
6.4981e-06
3.3137e-06
3.2056e-06
5.1569e-06
1.1861e-05
2.8239e-05
5.2261e-05
7.1038e-05
7.8548e-05
7.8946e-05
7.6237e-05
7.2951e-05
7.072e-05
6.9018e-05
6.7857e-05
6.6765e-05
6.5692e-05
6.41e-05
6.28e-05
6.1872e-05
6.1191e-05
6.0718e-05
6.0108e-05
5.9356e-05
5.8445e-05
5.7681e-05
5.6883e-05
5.5261e-05
5.2906e-05
5.2002e-05
5.8194e-05
8.2254e-05
5.0442e-05
2.068e-05
6.7844e-06
3.3273e-06
2.5392e-06
4.5707e-06
6.2162e-06
6.4591e-06
6.1022e-06
5.7371e-06
5.5094e-06
5.369e-06
5.2624e-06
5.1679e-06
5.0808e-06
5.0001e-06
4.9245e-06
4.8525e-06
4.783e-06
4.7155e-06
4.6496e-06
4.5854e-06
4.5227e-06
4.4617e-06
4.4021e-06
4.344e-06
4.2872e-06
4.2318e-06
4.1776e-06
4.1247e-06
4.073e-06
4.0225e-06
3.9732e-06
3.925e-06
3.8781e-06
3.8323e-06
3.7878e-06
3.7445e-06
3.7025e-06
3.6617e-06
3.6223e-06
3.5842e-06
3.5474e-06
3.512e-06
3.478e-06
3.4455e-06
3.4143e-06
3.3846e-06
3.3563e-06
3.3295e-06
3.3041e-06
3.2801e-06
3.2576e-06
3.2364e-06
3.2165e-06
3.198e-06
3.1807e-06
3.1647e-06
3.1499e-06
3.1363e-06
3.1238e-06
3.1123e-06
3.1018e-06
3.0923e-06
3.0837e-06
3.076e-06
3.069e-06
3.0628e-06
3.0573e-06
3.0525e-06
3.0483e-06
3.0447e-06
3.0416e-06
3.039e-06
3.0372e-06
3.0362e-06
3.0351e-06
3.0301e-06
3.018e-06
3.0148e-06
3.0591e-06
3.1811e-06
3.2344e-06
2.6661e-06
2.1953e-06
2.5381e-06
3.0135e-06
4.3139e-06
1
1
1
1
1
1
1
1
1
1
1
1
1
1
1
1
1
1
1
1
1
1
1
1
1
1
1
1
1
1
1
1
1
1
1
1
1
1
1
1
1
1
1
1
1
1
1
1
1
1
1
1
1
1
1
1
1
1
1
1
1
1
1
1
1
1
1
1
1
1
1
1
1
1
1
1
1
1
1
0.99999
0.99999
0.99999
0.99999
0.99999
0.99999
0.99999
0.99999
0.99999
0.99999
0.99999
0.99999
0.99999
0.99999
0.99999
0.99999
0.99999
0.99999
0.99999
0.99999
0.99999
0.99999
0.99999
0.99999
0.99999
0.99999
0.99999
0.99999
0.99999
0.99999
0.99999
0.99999
0.99999
0.99999
0.99999
0.99999
0.99999
0.99999
0.99999
0.99999
0.99999
0.99999
0.99999
0.99999
0.99999
0.99999
0.99999
0.99999
0.99999
0.99999
0.99999
0.99999
0.99999
0.99999
0.99999
0.99999
0.99999
0.99999
0.99999
0.99999
0.99999
0.99999
0.99999
0.99999
0.99999
0.99999
0.99999
0.99999
0.99999
0.99999
0.99999
0.99999
0.99999
0.99999
0.99999
0.99999
0.99999
0.99999
0.99999
0.99999
0.99999
0.99999
0.99999
0.99999
0.99999
0.99999
0.99999
0.99999
0.99999
0.99999
0.99999
0.99999
0.99999
0.99999
0.99999
0.99999
0.99999
0.99999
0.99999
0.99999
0.99999
0.99999
0.99999
0.99999
0.99999
0.99999
0.99999
0.99999
0.99999
0.99999
0.99999
0.99999
0.99999
0.99999
0.99999
0.99999
0.99999
0.99999
0.99999
0.99999
0.99999
0.99999
0.99999
0.99999
0.99999
0.99999
0.99999
0.99999
0.99999
0.99999
0.99999
0.99999
0.99999
0.99999
0.99999
0.99999
0.99999
0.99999
0.99999
0.99999
0.99999
0.99999
0.99999
0.99999
0.99999
0.99999
0.99999
0.99999
0.99999
0.99999
0.99999
0.99999
0.99999
0.99998
0.99998
0.99998
0.99998
0.99998
0.99998
0.99998
0.99998
0.99998
0.99998
0.99998
0.99998
0.99998
0.99998
0.99997
0.99997
0.99997
0.99997
0.99997
0.99997
0.99997
0.99997
0.99997
0.99998
0.99998
0.99998
0.99998
0.99998
0.99998
0.99998
0.99999
0.99999
0.99999
0.99999
0.99999
1
1
1
0.99999
0.99998
0.99991
0.99961
0.99765
0.97539
0.75309
0.049372
0.0022435
0.00013455
1.4185e-05
2.8767e-06
1.4334e-06
1.7375e-06
3.7177e-06
9.5235e-06
2.0131e-05
3.6431e-05
5.2806e-05
6.5137e-05
7.0969e-05
7.2184e-05
7.1407e-05
6.9828e-05
6.8314e-05
6.6805e-05
6.5415e-05
6.3824e-05
6.2558e-05
6.1636e-05
6.0949e-05
6.0345e-05
5.9578e-05
5.8747e-05
5.7865e-05
5.7226e-05
5.6572e-05
5.5016e-05
5.2743e-05
5.1972e-05
5.8036e-05
8.1421e-05
4.925e-05
1.9733e-05
6.2691e-06
2.9798e-06
2.2301e-06
4.0188e-06
5.6094e-06
6.0522e-06
5.9202e-06
5.6925e-06
5.5175e-06
5.3749e-06
5.2433e-06
5.1206e-06
5.0117e-06
4.9169e-06
4.8335e-06
4.7578e-06
4.6868e-06
4.6186e-06
4.5525e-06
4.488e-06
4.4251e-06
4.3637e-06
4.3038e-06
4.2453e-06
4.1883e-06
4.1327e-06
4.0784e-06
4.0253e-06
3.9736e-06
3.9231e-06
3.8738e-06
3.8257e-06
3.7789e-06
3.7332e-06
3.6888e-06
3.6456e-06
3.6037e-06
3.563e-06
3.5237e-06
3.4856e-06
3.4489e-06
3.4135e-06
3.3795e-06
3.3469e-06
3.3156e-06
3.2858e-06
3.2573e-06
3.2302e-06
3.2045e-06
3.1802e-06
3.1572e-06
3.1356e-06
3.1153e-06
3.0962e-06
3.0784e-06
3.0618e-06
3.0463e-06
3.032e-06
3.0187e-06
3.0065e-06
2.9953e-06
2.9851e-06
2.9757e-06
2.9672e-06
2.9595e-06
2.9526e-06
2.9464e-06
2.9409e-06
2.936e-06
2.9318e-06
2.9281e-06
2.925e-06
2.9227e-06
2.9212e-06
2.9197e-06
2.9145e-06
2.9024e-06
2.8991e-06
2.9416e-06
3.0591e-06
3.1104e-06
2.5623e-06
2.1086e-06
2.4393e-06
2.898e-06
4.1537e-06
1
1
1
1
1
1
1
1
1
1
1
1
1
1
1
1
1
1
1
1
1
1
1
1
1
1
1
1
1
1
1
1
1
1
1
1
1
1
1
1
1
1
1
1
1
1
1
1
1
1
1
1
1
1
1
1
1
1
1
1
1
1
1
1
1
1
1
1
1
1
1
1
1
1
0.99999
0.99999
0.99999
0.99999
0.99999
0.99999
0.99999
0.99999
0.99999
0.99999
0.99999
0.99999
0.99999
0.99999
0.99999
0.99999
0.99999
0.99999
0.99999
0.99999
0.99999
0.99999
0.99999
0.99999
0.99999
0.99999
0.99999
0.99999
0.99999
0.99999
0.99999
0.99999
0.99999
0.99999
0.99999
0.99999
0.99999
0.99999
0.99999
0.99999
0.99999
0.99999
0.99999
0.99999
0.99999
0.99999
0.99999
0.99999
0.99999
0.99999
0.99999
0.99999
0.99999
0.99999
0.99999
0.99999
0.99999
0.99999
0.99999
0.99999
0.99999
0.99999
0.99999
0.99999
0.99999
0.99999
0.99999
0.99999
0.99999
0.99999
0.99999
0.99999
0.99999
0.99999
0.99999
0.99999
0.99999
0.99999
0.99999
0.99999
0.99999
0.99999
0.99999
0.99999
0.99999
0.99999
0.99999
0.99999
0.99999
0.99999
0.99999
0.99999
0.99999
0.99999
0.99999
0.99999
0.99999
0.99999
0.99999
0.99999
0.99999
0.99999
0.99999
0.99999
0.99999
0.99999
0.99999
0.99999
0.99999
0.99999
0.99999
0.99999
0.99999
0.99999
0.99999
0.99999
0.99999
0.99999
0.99999
0.99999
0.99999
0.99999
0.99999
0.99999
0.99999
0.99999
0.99999
0.99999
0.99999
0.99999
0.99999
0.99999
0.99999
0.99999
0.99999
0.99999
0.99999
0.99999
0.99999
0.99999
0.99999
0.99999
0.99999
0.99999
0.99999
0.99999
0.99999
0.99999
0.99999
0.99999
0.99999
0.99999
0.99999
0.99999
0.99999
0.99998
0.99998
0.99998
0.99998
0.99998
0.99998
0.99998
0.99998
0.99998
0.99998
0.99998
0.99998
0.99997
0.99997
0.99997
0.99997
0.99997
0.99997
0.99997
0.99997
0.99997
0.99997
0.99997
0.99997
0.99997
0.99997
0.99997
0.99997
0.99997
0.99998
0.99998
0.99998
0.99998
0.99998
0.99998
0.99998
0.99999
0.99999
0.99999
1
1
0.99999
0.99999
0.99997
0.99993
0.99977
0.99895
0.99411
0.95907
0.65926
0.024291
0.00062706
3.1177e-05
4.2001e-06
1.9198e-06
1.7677e-06
2.6653e-06
4.8333e-06
1.0236e-05
2.0355e-05
3.5232e-05
5.0641e-05
6.2349e-05
6.8464e-05
7.0128e-05
6.9688e-05
6.832e-05
6.6854e-05
6.5231e-05
6.3901e-05
6.2837e-05
6.2031e-05
6.1124e-05
6.0229e-05
5.937e-05
5.8603e-05
5.81e-05
5.7499e-05
5.6038e-05
5.3882e-05
5.2994e-05
5.7931e-05
7.7427e-05
5.8754e-05
2.9422e-05
9.8964e-06
4.1126e-06
2.4353e-06
3.039e-06
3.9826e-06
4.9078e-06
5.3336e-06
5.4977e-06
5.5387e-06
5.4871e-06
5.3747e-06
5.2354e-06
5.0989e-06
4.9767e-06
4.872e-06
4.7818e-06
4.7022e-06
4.6294e-06
4.5608e-06
4.4949e-06
4.4308e-06
4.3683e-06
4.3072e-06
4.2475e-06
4.1893e-06
4.1324e-06
4.077e-06
4.023e-06
3.9702e-06
3.9188e-06
3.8687e-06
3.8198e-06
3.7721e-06
3.7258e-06
3.6806e-06
3.6368e-06
3.5942e-06
3.5529e-06
3.5129e-06
3.4741e-06
3.4368e-06
3.4007e-06
3.366e-06
3.3327e-06
3.3007e-06
3.2701e-06
3.2409e-06
3.213e-06
3.1865e-06
3.1613e-06
3.1374e-06
3.1149e-06
3.0936e-06
3.0736e-06
3.0548e-06
3.0372e-06
3.0208e-06
3.0054e-06
2.9911e-06
2.9779e-06
2.9657e-06
2.9544e-06
2.944e-06
2.9345e-06
2.9259e-06
2.918e-06
2.911e-06
2.9046e-06
2.899e-06
2.894e-06
2.8896e-06
2.8858e-06
2.8829e-06
2.8809e-06
2.8789e-06
2.8733e-06
2.8611e-06
2.8574e-06
2.8991e-06
3.0148e-06
3.0652e-06
2.5243e-06
2.0768e-06
2.4033e-06
2.8561e-06
4.0962e-06
1
1
1
1
1
1
1
1
1
1
1
1
1
1
1
1
1
1
1
1
1
1
1
1
1
1
1
1
1
1
1
1
1
1
1
1
1
1
1
1
1
1
1
1
1
1
1
1
1
1
1
1
1
1
1
1
1
1
1
1
1
1
1
1
1
1
1
1
1
1
0.99999
0.99999
0.99999
0.99999
0.99999
0.99999
0.99999
0.99999
0.99999
0.99999
0.99999
0.99999
0.99999
0.99999
0.99999
0.99999
0.99999
0.99999
0.99999
0.99999
0.99999
0.99999
0.99999
0.99999
0.99999
0.99999
0.99999
0.99999
0.99999
0.99999
0.99999
0.99999
0.99999
0.99999
0.99999
0.99999
0.99999
0.99999
0.99999
0.99999
0.99999
0.99999
0.99999
0.99999
0.99999
0.99999
0.99999
0.99999
0.99999
0.99999
0.99999
0.99999
0.99999
0.99999
0.99999
0.99999
0.99999
0.99999
0.99999
0.99999
0.99999
0.99999
0.99999
0.99999
0.99999
0.99999
0.99999
0.99999
0.99999
0.99999
0.99999
0.99999
0.99999
0.99999
0.99999
0.99999
0.99999
0.99999
0.99999
0.99999
0.99999
0.99999
0.99999
0.99999
0.99999
0.99999
0.99999
0.99999
0.99999
0.99999
0.99999
0.99999
0.99999
0.99999
0.99999
0.99999
0.99999
0.99999
0.99999
0.99999
0.99999
0.99999
0.99999
0.99999
0.99999
0.99999
0.99999
0.99999
0.99999
0.99999
0.99999
0.99999
0.99999
0.99999
0.99999
0.99999
0.99999
0.99999
0.99999
0.99999
0.99999
0.99999
0.99999
0.99999
0.99999
0.99999
0.99999
0.99999
0.99999
0.99999
0.99999
0.99999
0.99999
0.99999
0.99999
0.99999
0.99999
0.99999
0.99999
0.99999
0.99999
0.99999
0.99999
0.99999
0.99999
0.99999
0.99999
0.99999
0.99999
0.99999
0.99999
0.99999
0.99999
0.99999
0.99999
0.99999
0.99998
0.99998
0.99998
0.99998
0.99998
0.99998
0.99998
0.99998
0.99998
0.99998
0.99998
0.99997
0.99997
0.99997
0.99997
0.99997
0.99997
0.99997
0.99997
0.99996
0.99996
0.99996
0.99996
0.99996
0.99996
0.99996
0.99996
0.99997
0.99997
0.99997
0.99997
0.99997
0.99997
0.99997
0.99997
0.99997
0.99997
0.99997
0.99998
0.99998
0.99998
0.99999
0.99999
0.99999
0.99998
0.99997
0.99995
0.99994
0.99992
0.99987
0.99973
0.9992
0.99556
0.95699
0.38037
0.0063966
0.00020093
1.9283e-05
3.8183e-06
1.9548e-06
1.755e-06
2.6742e-06
5.1585e-06
1.0687e-05
2.107e-05
3.583e-05
5.0908e-05
6.1876e-05
6.7524e-05
6.893e-05
6.8483e-05
6.7271e-05
6.605e-05
6.4883e-05
6.3781e-05
6.2602e-05
6.1609e-05
6.0711e-05
6.0023e-05
5.9551e-05
5.8998e-05
5.7756e-05
5.5853e-05
5.4744e-05
5.7885e-05
7.1615e-05
6.7765e-05
4.5878e-05
2.1301e-05
8.8576e-06
4.3093e-06
3.3641e-06
3.2398e-06
3.5913e-06
3.888e-06
4.6157e-06
5.126e-06
5.3989e-06
5.4752e-06
5.4186e-06
5.2996e-06
5.1606e-06
5.0276e-06
4.9094e-06
4.8081e-06
4.7208e-06
4.6436e-06
4.573e-06
4.5063e-06
4.4419e-06
4.3791e-06
4.3177e-06
4.2575e-06
4.1988e-06
4.1414e-06
4.0855e-06
4.031e-06
3.9778e-06
3.926e-06
3.8756e-06
3.8264e-06
3.7786e-06
3.732e-06
3.6868e-06
3.6429e-06
3.6002e-06
3.5589e-06
3.5189e-06
3.4803e-06
3.443e-06
3.4071e-06
3.3725e-06
3.3393e-06
3.3074e-06
3.277e-06
3.2478e-06
3.2201e-06
3.1936e-06
3.1685e-06
3.1446e-06
3.1221e-06
3.1008e-06
3.0807e-06
3.0618e-06
3.044e-06
3.0274e-06
3.0118e-06
2.9973e-06
2.9838e-06
2.9713e-06
2.9597e-06
2.949e-06
2.9393e-06
2.9303e-06
2.9222e-06
2.9149e-06
2.9083e-06
2.9024e-06
2.8972e-06
2.8927e-06
2.8891e-06
2.8864e-06
2.8838e-06
2.8778e-06
2.8651e-06
2.8611e-06
2.9025e-06
3.018e-06
3.0682e-06
2.5267e-06
2.0787e-06
2.4055e-06
2.8587e-06
4.1001e-06
1
1
1
1
1
1
1
1
1
1
1
1
1
1
1
1
1
1
1
1
1
1
1
1
1
1
1
1
1
1
1
1
1
1
1
1
1
1
1
1
1
1
1
1
1
1
1
1
1
1
1
1
1
1
1
1
1
1
1
1
1
1
1
1
0.99999
0.99999
0.99999
0.99999
0.99999
0.99999
0.99999
0.99999
0.99999
0.99999
0.99998
0.99998
0.99998
0.99998
0.99998
0.99998
0.99999
0.99999
0.99999
0.99999
0.99999
0.99999
0.99999
0.99999
0.99999
0.99999
0.99999
0.99999
0.99999
0.99999
0.99999
0.99999
0.99999
0.99999
0.99999
0.99999
0.99999
0.99999
0.99999
0.99999
0.99999
0.99999
0.99999
0.99999
0.99999
0.99999
0.99999
0.99999
0.99999
0.99999
0.99999
0.99999
0.99999
0.99999
0.99999
0.99999
0.99999
0.99999
0.99999
0.99999
0.99999
0.99999
0.99999
0.99999
0.99999
0.99999
0.99999
0.99999
0.99999
0.99999
0.99999
0.99999
0.99999
0.99999
0.99999
0.99999
0.99999
0.99999
0.99999
0.99999
0.99999
0.99999
0.99999
0.99999
0.99999
0.99999
0.99999
0.99999
0.99999
0.99999
0.99999
0.99999
0.99999
0.99999
0.99999
0.99999
0.99999
0.99999
0.99999
0.99999
0.99999
0.99999
0.99999
0.99999
0.99999
0.99999
0.99999
0.99999
0.99999
0.99999
0.99999
0.99999
0.99999
0.99999
0.99999
0.99999
0.99999
0.99999
0.99999
0.99999
0.99999
0.99999
0.99999
0.99999
0.99999
0.99999
0.99999
0.99999
0.99999
0.99999
0.99999
0.99999
0.99999
0.99999
0.99999
0.99999
0.99999
0.99999
0.99999
0.99999
0.99999
0.99999
0.99999
0.99999
0.99999
0.99999
0.99999
0.99999
0.99999
0.99999
0.99999
0.99999
0.99999
0.99999
0.99999
0.99999
0.99999
0.99999
0.99999
0.99999
0.99999
0.99998
0.99998
0.99998
0.99998
0.99998
0.99998
0.99998
0.99998
0.99998
0.99997
0.99997
0.99997
0.99997
0.99997
0.99997
0.99996
0.99996
0.99996
0.99996
0.99996
0.99996
0.99996
0.99995
0.99995
0.99995
0.99995
0.99996
0.99996
0.99996
0.99996