/*--------------------------------*- C++ -*----------------------------------*\
| =========                 |                                                 |
| \\      /  F ield         | OpenFOAM: The Open Source CFD Toolbox           |
|  \\    /   O peration     | Version:  5.x                                   |
|   \\  /    A nd           | Web:      www.OpenFOAM.org                      |
|    \\/     M anipulation  |                                                 |
\*---------------------------------------------------------------------------*/
FoamFile
{
    version     2.0;
    format      ascii;
    class       volSymmTensorField;
    location    "58";
    object      sigmaD;
}
// * * * * * * * * * * * * * * * * * * * * * * * * * * * * * * * * * * * * * //

dimensions      [0 2 -2 0 0 0 0];

internalField   nonuniform List<symmTensor> 
80000
(
(49280 3586.4 0 2653.1 0 11984)
(37502 1450.2 0 166.05 0 8692.6)
(33529 732.91 0 -70.572 0 7721.3)
(31322 485.42 0 -16.692 0 7224.3)
(29773 376.23 0 18.779 0 6875)
(28551 311.24 0 27.573 0 6595.1)
(27534 265.85 0 26.822 0 6360.2)
(26659 232.45 0 24.374 0 6157.8)
(25888 207.39 0 22.325 0 5979.4)
(25195 188.27 0 20.883 0 5819.1)
(24561 173.4 0 19.862 0 5672.5)
(23973 161.58 0 19.077 0 5536.7)
(23422 151.95 0 18.409 0 5409.4)
(22901 143.92 0 17.79 0 5289.1)
(22406 137.04 0 17.186 0 5174.7)
(21934 131.01 0 16.578 0 5065.4)
(21481 125.61 0 15.961 0 4960.7)
(21045 120.67 0 15.334 0 4860.1)
(20627 116.06 0 14.699 0 4763.4)
(20224 111.7 0 14.062 0 4670.2)
(19835 107.52 0 13.428 0 4580.5)
(19462 103.46 0 12.802 0 4494.1)
(19102 99.496 0 12.19 0 4411)
(18756 95.594 0 11.597 0 4331.1)
(18425 91.732 0 11.027 0 4254.4)
(18106 87.894 0 10.487 0 4180.8)
(17802 84.069 0 9.9784 0 4110.4)
(17511 80.247 0 9.5065 0 4043.1)
(17233 76.421 0 9.0744 0 3979)
(16970 72.588 0 8.6849 0 3918.1)
(16720 68.746 0 8.3408 0 3860.3)
(16483 64.895 0 8.0446 0 3805.7)
(16261 61.037 0 7.7984 0 3754.4)
(16053 57.175 0 7.6039 0 3706.2)
(15858 53.317 0 7.4625 0 3661.3)
(15677 49.471 0 7.3752 0 3619.5)
(15510 45.649 0 7.3425 0 3581)
(15357 41.867 0 7.3642 0 3545.6)
(15217 38.144 0 7.4395 0 3513.4)
(15091 34.501 0 7.5667 0 3484.2)
(14977 30.965 0 7.7433 0 3458.1)
(14876 27.568 0 7.9654 0 3434.8)
(14787 24.342 0 8.2282 0 3414.3)
(14710 21.327 0 8.5257 0 3396.5)
(14642 18.562 0 8.8505 0 3381)
(14584 16.089 0 9.1942 0 3367.7)
(14535 13.951 0 9.5474 0 3356.3)
(14492 12.185 0 9.9001 0 3346.6)
(14455 10.828 0 10.242 0 3338.1)
(14422 9.904 0 10.562 0 3330.5)
(14391 9.4291 0 10.851 0 3323.4)
(14360 9.4043 0 11.101 0 3316.5)
(14329 9.8148 0 11.303 0 3309.4)
(14295 10.628 0 11.452 0 3301.6)
(14258 11.795 0 11.544 0 3292.9)
(14215 13.249 0 11.576 0 3283)
(14166 14.911 0 11.547 0 3271.7)
(14110 16.696 0 11.456 0 3258.8)
(14048 18.514 0 11.304 0 3244.4)
(13978 20.281 0 11.093 0 3228.3)
(13902 21.922 0 10.823 0 3210.7)
(13820 23.378 0 10.497 0 3191.7)
(13733 24.606 0 10.118 0 3171.6)
(13642 25.584 0 9.691 0 3150.5)
(13548 26.31 0 9.2202 0 3128.6)
(13451 26.794 0 8.7122 0 3106.2)
(13354 27.063 0 8.1741 0 3083.5)
(13255 27.15 0 7.6133 0 3060.6)
(13156 27.092 0 7.0373 0 3037.7)
(13058 26.926 0 6.453 0 3015)
(12961 26.686 0 5.8665 0 2992.4)
(12865 26.401 0 5.2827 0 2970)
(12770 26.095 0 4.7053 0 2947.9)
(12676 25.784 0 4.1368 0 2926.1)
(12583 25.476 0 3.5789 0 2904.6)
(12491 25.176 0 3.0323 0 2883.3)
(12401 24.882 0 2.4977 0 2862.3)
(12311 24.588 0 1.9753 0 2841.5)
(12223 24.283 0 1.4657 0 2821)
(12135 23.954 0 0.96961 0 2800.7)
(12049 23.586 0 0.48858 0 2780.8)
(11965 23.163 0 0.024443 0 2761.1)
(11882 22.666 0 -0.4202 0 2741.9)
(11801 22.081 0 -0.8424 0 2723.1)
(11722 21.391 0 -1.2388 0 2704.9)
(11647 20.585 0 -1.6061 0 2687.3)
(11574 19.657 0 -1.9411 0 2670.5)
(11505 18.607 0 -2.2414 0 2654.5)
(11440 17.445 0 -2.5053 0 2639.4)
(11380 16.188 0 -2.7323 0 2625.5)
(11324 14.865 0 -2.9233 0 2612.6)
(11274 13.513 0 -3.0801 0 2600.9)
(11228 12.18 0 -3.2057 0 2590.4)
(11188 10.916 0 -3.3036 0 2581)
(11152 9.7731 0 -3.378 0 2572.7)
(11120 8.8013 0 -3.4331 0 2565.3)
(11091 8.042 0 -3.4728 0 2558.6)
(11064 7.5244 0 -3.5007 0 2552.5)
(11039 7.2621 0 -3.5203 0 2546.7)
(11015 7.251 0 -3.5342 0 2541)
(10990 7.469 0 -3.5451 0 2535.2)
(10963 7.8779 0 -3.556 0 2529.2)
(10935 8.4266 0 -3.5696 0 2522.7)
(10905 9.056 0 -3.5886 0 2515.7)
(10872 9.7038 0 -3.6152 0 2508)
(10836 10.308 0 -3.65 0 2499.9)
(10799 10.813 0 -3.6929 0 2491.2)
(10760 11.17 0 -3.7433 0 2482.2)
(10719 11.343 0 -3.7996 0 2472.8)
(10679 11.312 0 -3.8591 0 2463.5)
(10639 11.069 0 -3.9185 0 2454.2)
(10600 10.62 0 -3.9743 0 2445.2)
(10563 9.9859 0 -4.023 0 2436.7)
(10529 9.1961 0 -4.0611 0 2428.8)
(10498 8.2899 0 -4.0856 0 2421.7)
(10471 7.3113 0 -4.0936 0 2415.4)
(10447 6.3059 0 -4.083 0 2409.9)
(10427 5.3173 0 -4.0519 0 2405.3)
(10411 4.384 0 -3.9988 0 2401.5)
(10398 3.5373 0 -3.923 0 2398.6)
(10388 2.7992 0 -3.8245 0 2396.3)
(10380 2.1825 0 -3.704 0 2394.5)
(10374 1.6911 0 -3.5636 0 2393.3)
(10371 1.3222 0 -3.4058 0 2392.4)
(10368 1.0673 0 -3.2345 0 2391.8)
(10366 0.91564 0 -3.0539 0 2391.4)
(10364 0.85506 0 -2.8685 0 2391)
(10362 0.87407 0 -2.6827 0 2390.6)
(10360 0.96218 0 -2.5005 0 2390.2)
(10358 1.1099 0 -2.325 0 2389.7)
(10355 1.3082 0 -2.1583 0 2389)
(10351 1.5475 0 -2.0016 0 2388.1)
(10346 1.8171 0 -1.8553 0 2387)
(10340 2.1045 0 -1.7191 0 2385.7)
(10332 2.3952 0 -1.5922 0 2384)
(10324 2.6739 0 -1.4739 0 2382.2)
(10315 2.9247 0 -1.3631 0 2380)
(10305 3.1325 0 -1.2593 0 2377.7)
(10294 3.2848 0 -1.1619 0 2375.2)
(10282 3.372 0 -1.0702 0 2372.6)
(10271 3.3886 0 -0.98383 0 2370)
(10259 3.3328 0 -0.90196 0 2367.3)
(10248 3.2065 0 -0.82356 0 2364.8)
(10237 3.014 0 -0.7472 0 2362.3)
(10228 2.7608 0 -0.67102 0 2360)
(10219 2.4527 0 -0.59279 0 2358)
(10211 2.0939 0 -0.51001 0 2356.3)
(10205 1.6868 0 -0.42003 0 2354.8)
(10200 1.2315 0 -0.32026 0 2353.8)
(10197 0.7258 0 -0.20829 0 2353.1)
(10196 0.16633 0 -0.082076 0 2352.9)
(10197 -0.45066 0 0.060008 0 2353.2)
(10200 -1.1278 0 0.21903 0 2354)
(10206 -1.8652 0 0.39556 0 2355.4)
(10215 -2.6593 0 0.58955 0 2357.5)
(10227 -3.5016 0 0.80046 0 2360.3)
(10242 -4.3789 0 1.0271 0 2363.8)
(10260 -5.2722 0 1.2679 0 2368)
(10281 -6.1583 0 1.5204 0 2373)
(10306 -7.0098 0 1.7817 0 2378.7)
(10334 -7.7971 0 2.0483 0 2385.2)
(10364 -8.4899 0 2.3162 0 2392.2)
(10397 -9.0594 0 2.5809 0 2399.8)
(10431 -9.4805 0 2.838 0 2407.8)
(10466 -9.7346 0 3.0833 0 2416)
(10502 -9.8116 0 3.313 0 2424.4)
(10538 -9.7122 0 3.5243 0 2432.7)
(10573 -9.4495 0 3.7156 0 2440.9)
(10607 -9.049 0 3.8864 0 2448.7)
(10639 -8.5484 0 4.0375 0 2456)
(10669 -7.9952 0 4.1707 0 2462.9)
(10696 -7.4431 0 4.2882 0 2469.3)
(10721 -6.9468 0 4.3923 0 2475.2)
(10745 -6.5572 0 4.4851 0 2480.7)
(10767 -6.3151 0 4.568 0 2485.8)
(10789 -6.2469 0 4.6421 0 2490.8)
(10811 -6.3612 0 4.7079 0 2495.9)
(10833 -6.648 0 4.7658 0 2501)
(10857 -7.0796 0 4.8166 0 2506.5)
(10882 -7.6145 0 4.8614 0 2512.4)
(10910 -8.2026 0 4.9022 0 2518.8)
(10940 -8.7912 0 4.9414 0 2525.7)
(10972 -9.3312 0 4.9819 0 2533.2)
(11006 -9.7828 0 5.0272 0 2541)
(11041 -10.12 0 5.0804 0 2549.2)
(11078 -10.331 0 5.1449 0 2557.6)
(11115 -10.422 0 5.2234 0 2566.1)
(11152 -10.412 0 5.3184 0 2574.7)
(11189 -10.331 0 5.4314 0 2583.3)
(11225 -10.212 0 5.5626 0 2591.7)
(11261 -10.088 0 5.7103 0 2600.1)
(11297 -9.9818 0 5.8709 0 2608.3)
(11332 -9.899 0 6.038 0 2616.5)
(11367 -9.8272 0 6.2035 0 2624.7)
(11402 -9.732 0 6.3576 0 2632.8)
(11437 -9.5606 0 6.4908 0 2640.8)
(11471 -9.2487 0 6.5946 0 2648.6)
(11503 -8.7306 0 6.6636 0 2656.1)
(11533 -7.9515 0 6.6957 0 2663)
(11560 -6.8791 0 6.6925 0 2669.2)
(11582 -5.5126 0 6.6582 0 2674.3)
(11599 -3.8874 0 6.5987 0 2678.1)
(11609 -2.0737 0 6.5193 0 2680.5)
(11612 -0.1698 0 6.4242 0 2681.2)
(11608 1.7088 0 6.3151 0 2680.3)
(11598 3.4419 0 6.1924 0 2677.8)
(11581 4.9175 0 6.0556 0 2673.9)
(11559 6.0405 0 5.9055 0 2668.9)
(11534 6.7397 0 5.7451 0 2663.1)
(11508 6.969 0 5.5809 0 2656.9)
(11481 6.7067 0 5.4232 0 2650.7)
(11456 5.9514 0 5.2854 0 2645)
(11435 4.7184 0 5.1829 0 2640.1)
(11420 3.0356 0 5.1323 0 2636.6)
(11412 0.94048 0 5.1494 0 2634.6)
(11412 -1.5215 0 5.2488 0 2634.7)
(11422 -4.2981 0 5.4431 0 2637.1)
(11443 -7.3305 0 5.7426 0 2642.1)
(11476 -10.554 0 6.1556 0 2649.8)
(11522 -13.899 0 6.6881 0 2660.4)
(11580 -17.289 0 7.3442 0 2673.9)
(11650 -20.647 0 8.1253 0 2690.4)
(11734 -23.888 0 9.03 0 2709.9)
(11829 -26.927 0 10.054 0 2732.1)
(11935 -29.671 0 11.188 0 2756.9)
(12051 -32.024 0 12.42 0 2784)
(12176 -33.886 0 13.734 0 2812.9)
(12306 -35.157 0 15.111 0 2843.3)
(12440 -35.737 0 16.531 0 2874.6)
(12575 -35.535 0 17.973 0 2906.1)
(12709 -34.476 0 19.416 0 2937.2)
(12836 -32.505 0 20.84 0 2967.1)
(12956 -29.596 0 22.225 0 2994.9)
(13063 -25.752 0 23.553 0 3019.9)
(13154 -21.012 0 24.807 0 3041.2)
(13226 -15.442 0 25.97 0 3058.2)
(13277 -9.1354 0 27.025 0 3070.1)
(13303 -2.2029 0 27.955 0 3076.4)
(13303 5.2338 0 28.746 0 3076.6)
(13275 13.052 0 29.382 0 3070.3)
(13218 21.134 0 29.851 0 3057.2)
(13131 29.378 0 30.141 0 3037.2)
(13013 37.7 0 30.241 0 3010.1)
(12865 46.038 0 30.144 0 2975.9)
(12687 54.356 0 29.842 0 2934.7)
(12478 62.642 0 29.328 0 2886.4)
(12239 70.908 0 28.593 0 2831.1)
(11970 79.191 0 27.629 0 2768.7)
(11671 87.547 0 26.42 0 2699.3)
(11340 96.056 0 24.946 0 2622.8)
(10979 104.82 0 23.176 0 2538.9)
(10584 113.98 0 21.059 0 2447.3)
(10154 123.7 0 18.517 0 2347.5)
(9686.9 134.22 0 15.422 0 2239)
(9178.2 145.86 0 11.559 0 2120.7)
(8622.2 159.03 0 6.5717 0 1991.3)
(8010.9 174.33 0 -0.098884 0 1848.6)
(7333 192.46 0 -9.1679 0 1690.1)
(6572.3 214.29 0 -21.046 0 1511.8)
(5705.4 241.24 0 -34.67 0 1308.6)
(4701.1 278.69 0 -46.443 0 1074.2)
(3562.6 343.73 0 -49.983 0 810.6)
(2066 385.73 0 -51.337 0 464.92)
(11.646 1.7997 0 0.39028 0 2.7775)
(0.00039773 2.4162e-05 0 1.1793e-05 0 9.4504e-05)
(0.00010669 3.9162e-06 0 1.8886e-06 0 2.5057e-05)
(9.3273e-05 2.3333e-06 0 1.5863e-06 0 2.1891e-05)
(8.9948e-05 1.3718e-07 0 1.0241e-06 0 2.0994e-05)
(8.8264e-05 1.9604e-06 0 7.8165e-07 0 2.0549e-05)
(8.3822e-05 -6.6496e-08 0 9.3237e-08 0 1.9365e-05)
(8.4697e-05 -3.6489e-07 0 3.4124e-07 0 1.9624e-05)
(8.6179e-05 -1.8152e-07 0 1.3984e-07 0 1.992e-05)
(8.7077e-05 -6.3364e-08 0 -6.2571e-08 0 2.008e-05)
(8.7102e-05 8.9983e-08 0 -8.8928e-08 0 2.008e-05)
(8.6439e-05 2.418e-07 0 -9.1745e-08 0 1.9926e-05)
(8.5327e-05 3.2142e-07 0 -3.7985e-08 0 1.9682e-05)
(8.412e-05 3.2294e-07 0 -1.793e-08 0 1.9408e-05)
(8.3016e-05 3.0672e-07 0 -4.9102e-08 0 1.9146e-05)
(8.1989e-05 2.9959e-07 0 -7.4955e-08 0 1.8903e-05)
(8.094e-05 2.9603e-07 0 -7.4264e-08 0 1.8661e-05)
(7.9876e-05 2.8315e-07 0 -6.2427e-08 0 1.8419e-05)
(7.8887e-05 2.5558e-07 0 -6.2085e-08 0 1.819e-05)
(7.8263e-05 2.3902e-07 0 -8.3322e-08 0 1.8041e-05)
(7.7786e-05 2.6506e-07 0 -9.4857e-08 0 1.7929e-05)
(7.6152e-05 2.7584e-07 0 -7.7025e-08 0 1.7556e-05)
(7.527e-05 2.4444e-07 0 -6.4563e-08 0 1.7355e-05)
(7.4528e-05 2.0961e-07 0 -6.7907e-08 0 1.7183e-05)
(7.3852e-05 1.8215e-07 0 -7.1064e-08 0 1.7026e-05)
(7.3246e-05 1.5923e-07 0 -7.2235e-08 0 1.6886e-05)
(7.2723e-05 1.3832e-07 0 -7.2775e-08 0 1.6765e-05)
(7.2273e-05 1.1902e-07 0 -7.3128e-08 0 1.6661e-05)
(7.1891e-05 1.0161e-07 0 -7.3209e-08 0 1.6573e-05)
(7.1571e-05 8.6462e-08 0 -7.2946e-08 0 1.6499e-05)
(7.1302e-05 7.3816e-08 0 -7.2261e-08 0 1.6438e-05)
(7.1075e-05 6.3633e-08 0 -7.1115e-08 0 1.6385e-05)
(7.0881e-05 5.567e-08 0 -6.9537e-08 0 1.6341e-05)
(7.0712e-05 4.9573e-08 0 -6.7599e-08 0 1.6303e-05)
(7.0562e-05 4.4967e-08 0 -6.54e-08 0 1.6268e-05)
(7.0427e-05 4.1525e-08 0 -6.3036e-08 0 1.6238e-05)
(7.0301e-05 3.9004e-08 0 -6.059e-08 0 1.6209e-05)
(7.0183e-05 3.725e-08 0 -5.8125e-08 0 1.6183e-05)
(7.007e-05 3.6196e-08 0 -5.5681e-08 0 1.6157e-05)
(6.996e-05 3.583e-08 0 -5.3278e-08 0 1.6132e-05)
(6.9849e-05 3.6179e-08 0 -5.0921e-08 0 1.6107e-05)
(6.9736e-05 3.7271e-08 0 -4.8607e-08 0 1.6082e-05)
(6.9618e-05 3.9127e-08 0 -4.633e-08 0 1.6055e-05)
(6.9491e-05 4.1742e-08 0 -4.4082e-08 0 1.6026e-05)
(6.9354e-05 4.5088e-08 0 -4.1859e-08 0 1.5995e-05)
(6.9204e-05 4.9111e-08 0 -3.966e-08 0 1.5961e-05)
(6.9038e-05 5.3735e-08 0 -3.7488e-08 0 1.5923e-05)
(6.8855e-05 5.8874e-08 0 -3.5349e-08 0 1.5881e-05)
(6.8652e-05 6.4429e-08 0 -3.324e-08 0 1.5835e-05)
(6.8428e-05 7.0281e-08 0 -3.1213e-08 0 1.5784e-05)
(6.8184e-05 7.6479e-08 0 -2.9489e-08 0 1.5728e-05)
(6.7925e-05 8.3526e-08 0 -2.7781e-08 0 1.5669e-05)
(6.762e-05 9.0697e-08 0 -2.5703e-08 0 1.5599e-05)
(6.7302e-05 9.7466e-08 0 -2.3755e-08 0 1.5526e-05)
(6.696e-05 1.0442e-07 0 -2.2128e-08 0 1.5447e-05)
(6.6591e-05 1.1162e-07 0 -2.0553e-08 0 1.5362e-05)
(6.6197e-05 1.1899e-07 0 -1.9022e-08 0 1.5272e-05)
(6.5776e-05 1.2651e-07 0 -1.755e-08 0 1.5175e-05)
(6.5328e-05 1.3416e-07 0 -1.6141e-08 0 1.5072e-05)
(6.4852e-05 1.4194e-07 0 -1.4795e-08 0 1.4963e-05)
(6.4349e-05 1.4986e-07 0 -1.3512e-08 0 1.4847e-05)
(6.3817e-05 1.5791e-07 0 -1.2292e-08 0 1.4724e-05)
(6.3257e-05 1.6609e-07 0 -1.1138e-08 0 1.4595e-05)
(6.2667e-05 1.7442e-07 0 -1.0051e-08 0 1.4459e-05)
(6.2047e-05 1.8289e-07 0 -9.0324e-09 0 1.4316e-05)
(6.1397e-05 1.915e-07 0 -8.0858e-09 0 1.4167e-05)
(6.0716e-05 2.0025e-07 0 -7.2139e-09 0 1.401e-05)
(6.0003e-05 2.0913e-07 0 -6.42e-09 0 1.3845e-05)
(5.9259e-05 2.1814e-07 0 -5.7077e-09 0 1.3674e-05)
(5.8482e-05 2.2727e-07 0 -5.0805e-09 0 1.3495e-05)
(5.7673e-05 2.365e-07 0 -4.5426e-09 0 1.3308e-05)
(5.683e-05 2.4582e-07 0 -4.0978e-09 0 1.3114e-05)
(5.5954e-05 2.5521e-07 0 -3.7502e-09 0 1.2912e-05)
(5.5044e-05 2.6464e-07 0 -3.5035e-09 0 1.2702e-05)
(5.41e-05 2.7409e-07 0 -3.3616e-09 0 1.2484e-05)
(5.3123e-05 2.8354e-07 0 -3.3277e-09 0 1.2258e-05)
(5.2112e-05 2.9294e-07 0 -3.4054e-09 0 1.2025e-05)
(5.1067e-05 3.0227e-07 0 -3.5972e-09 0 1.1784e-05)
(4.9988e-05 3.1149e-07 0 -3.9058e-09 0 1.1535e-05)
(4.8877e-05 3.2056e-07 0 -4.3327e-09 0 1.1278e-05)
(4.7733e-05 3.2945e-07 0 -4.8796e-09 0 1.1014e-05)
(4.6558e-05 3.3811e-07 0 -5.5471e-09 0 1.0743e-05)
(4.5352e-05 3.465e-07 0 -6.3355e-09 0 1.0464e-05)
(4.4117e-05 3.5458e-07 0 -7.244e-09 0 1.0179e-05)
(4.2852e-05 3.623e-07 0 -8.2716e-09 0 9.8871e-06)
(4.1561e-05 3.6962e-07 0 -9.4161e-09 0 9.5889e-06)
(4.0244e-05 3.7649e-07 0 -1.0675e-08 0 9.2846e-06)
(3.8903e-05 3.8286e-07 0 -1.2045e-08 0 8.9748e-06)
(3.754e-05 3.887e-07 0 -1.3521e-08 0 8.6599e-06)
(3.6156e-05 3.9395e-07 0 -1.5099e-08 0 8.3402e-06)
(3.4755e-05 3.9857e-07 0 -1.6773e-08 0 8.0164e-06)
(3.3338e-05 4.0251e-07 0 -1.8536e-08 0 7.689e-06)
(3.1907e-05 4.0574e-07 0 -2.0381e-08 0 7.3585e-06)
(3.0466e-05 4.082e-07 0 -2.2299e-08 0 7.0256e-06)
(2.9018e-05 4.0987e-07 0 -2.4283e-08 0 6.6908e-06)
(2.7564e-05 4.1071e-07 0 -2.6321e-08 0 6.355e-06)
(2.6109e-05 4.1068e-07 0 -2.8404e-08 0 6.0187e-06)
(2.4655e-05 4.0976e-07 0 -3.052e-08 0 5.6827e-06)
(2.3206e-05 4.0791e-07 0 -3.2658e-08 0 5.3478e-06)
(2.1765e-05 4.0511e-07 0 -3.4805e-08 0 5.0147e-06)
(2.0336e-05 4.0134e-07 0 -3.6949e-08 0 4.6843e-06)
(1.8921e-05 3.9659e-07 0 -3.9075e-08 0 4.3574e-06)
(1.7525e-05 3.9083e-07 0 -4.117e-08 0 4.0347e-06)
(1.6151e-05 3.8408e-07 0 -4.3218e-08 0 3.7172e-06)
(1.4803e-05 3.7631e-07 0 -4.5205e-08 0 3.4057e-06)
(1.3485e-05 3.6753e-07 0 -4.7114e-08 0 3.1009e-06)
(1.2199e-05 3.5774e-07 0 -4.8929e-08 0 2.8039e-06)
(1.095e-05 3.4696e-07 0 -5.0634e-08 0 2.5153e-06)
(9.7421e-06 3.3519e-07 0 -5.2212e-08 0 2.2361e-06)
(8.5776e-06 3.2245e-07 0 -5.3644e-08 0 1.9671e-06)
(7.4605e-06 3.0876e-07 0 -5.4914e-08 0 1.709e-06)
(6.3941e-06 2.9416e-07 0 -5.6003e-08 0 1.4626e-06)
(5.3817e-06 2.7866e-07 0 -5.6891e-08 0 1.2288e-06)
(4.4266e-06 2.6232e-07 0 -5.7561e-08 0 1.0082e-06)
(3.5317e-06 2.4516e-07 0 -5.7993e-08 0 8.0163e-07)
(2.6999e-06 2.2725e-07 0 -5.8166e-08 0 6.0964e-07)
(1.934e-06 2.0864e-07 0 -5.8062e-08 0 4.329e-07)
(1.2363e-06 1.894e-07 0 -5.766e-08 0 2.7199e-07)
(6.0911e-07 1.6959e-07 0 -5.694e-08 0 1.2743e-07)
(5.4404e-08 1.4932e-07 0 -5.5882e-08 0 -3.4104e-10)
(-4.2624e-07 1.2868e-07 0 -5.4467e-08 0 -1.1093e-07)
(-8.316e-07 1.078e-07 0 -5.2677e-08 0 -2.0406e-07)
(-1.1609e-06 8.681e-08 0 -5.0495e-08 0 -2.7956e-07)
(-1.414e-06 6.5887e-08 0 -4.7908e-08 0 -3.3736e-07)
(-1.5912e-06 4.5232e-08 0 -4.4908e-08 0 -3.7757e-07)
(-1.6939e-06 2.5088e-08 0 -4.1493e-08 0 -4.0048e-07)
(-1.7242e-06 5.7549e-09 0 -3.7674e-08 0 -4.0659e-07)
(-1.6857e-06 -1.2398e-08 0 -3.3481e-08 0 -3.9672e-07)
(-1.5831e-06 -2.8909e-08 0 -2.8975e-08 0 -3.7202e-07)
(-1.4236e-06 -4.3196e-08 0 -2.4268e-08 0 -3.3412e-07)
(-1.2164e-06 -5.4513e-08 0 -1.9566e-08 0 -2.8523e-07)
(-9.7442e-07 -6.1913e-08 0 -1.5242e-08 0 -2.2838e-07)
(-7.1463e-07 -6.4231e-08 0 -1.1945e-08 0 -1.6767e-07)
(-4.5944e-07 -6.0203e-08 0 -1.068e-08 0 -1.0849e-07)
(-2.3701e-07 -4.9011e-08 0 -1.2412e-08 0 -5.7558e-08)
(-7.911e-08 -3.1716e-08 0 -1.5487e-08 0 -2.183e-08)
(-6.0271e-09 -1.3244e-08 0 -5.6119e-09 0 -2.6859e-09)
(33942 8226.7 0 5022 0 8991.6)
(34884 5348.1 0 1546.8 0 8407.1)
(33008 3559.2 0 571.23 0 7749)
(31077 2522.5 0 340.07 0 7250.1)
(29530 1939.4 0 259.32 0 6874.6)
(28296 1585.5 0 201.23 0 6576.2)
(27270 1348.5 0 152.78 0 6328.4)
(26389 1178.5 0 115.12 0 6116.4)
(25612 1051.8 0 87.433 0 5930.6)
(24913 954.89 0 67.565 0 5764.8)
(24275 879.11 0 53.359 0 5614.3)
(23686 818.55 0 43.155 0 5476)
(23137 769.07 0 35.772 0 5347.5)
(22619 727.69 0 30.397 0 5226.9)
(22130 692.27 0 26.466 0 5113)
(21664 661.25 0 23.583 0 5004.9)
(21220 633.49 0 21.466 0 4901.9)
(20794 608.14 0 19.915 0 4803.3)
(20386 584.59 0 18.781 0 4708.8)
(19994 562.36 0 17.959 0 4618.1)
(19617 541.1 0 17.368 0 4530.9)
(19254 520.54 0 16.95 0 4447.2)
(18906 500.5 0 16.663 0 4366.7)
(18571 480.82 0 16.474 0 4289.4)
(18249 461.39 0 16.359 0 4215.2)
(17941 442.11 0 16.301 0 4144)
(17646 422.92 0 16.283 0 4075.9)
(17364 403.78 0 16.297 0 4010.8)
(17095 384.65 0 16.33 0 3948.7)
(16838 365.5 0 16.376 0 3889.6)
(16595 346.33 0 16.426 0 3833.4)
(16365 327.13 0 16.472 0 3780.2)
(16147 307.91 0 16.505 0 3730)
(15942 288.69 0 16.516 0 3682.8)
(15750 269.5 0 16.494 0 3638.5)
(15571 250.38 0 16.428 0 3597.1)
(15404 231.4 0 16.305 0 3558.6)
(15250 212.63 0 16.11 0 3523.1)
(15109 194.15 0 15.827 0 3490.3)
(14979 176.08 0 15.44 0 3460.4)
(14862 158.55 0 14.929 0 3433.1)
(14755 141.7 0 14.278 0 3408.4)
(14660 125.7 0 13.47 0 3386.2)
(14575 110.72 0 12.489 0 3366.3)
(14499 96.973 0 11.327 0 3348.6)
(14433 84.649 0 9.9774 0 3332.9)
(14373 73.949 0 8.4457 0 3318.9)
(14321 65.062 0 6.7464 0 3306.4)
(14274 58.15 0 4.9068 0 3295.1)
(14231 53.338 0 2.968 0 3284.7)
(14190 50.701 0 0.98496 0 3275)
(14152 50.243 0 -0.97498 0 3265.5)
(14113 51.894 0 -2.8354 0 3256.2)
(14073 55.499 0 -4.5158 0 3246.6)
(14031 60.822 0 -5.9388 0 3236.5)
(13985 67.547 0 -7.0371 0 3225.7)
(13935 75.299 0 -7.7619 0 3214)
(13881 83.665 0 -8.0886 0 3201.4)
(13821 92.22 0 -8.0209 0 3187.7)
(13757 100.56 0 -7.5914 0 3172.9)
(13688 108.32 0 -6.8585 0 3157.1)
(13614 115.21 0 -5.8995 0 3140.3)
(13536 121.04 0 -4.8024 0 3122.7)
(13456 125.7 0 -3.6557 0 3104.3)
(13373 129.16 0 -2.5395 0 3085.4)
(13288 131.48 0 -1.519 0 3066)
(13201 132.78 0 -0.63983 0 3046.3)
(13115 133.22 0 0.072876 0 3026.5)
(13028 132.96 0 0.61289 0 3006.6)
(12941 132.19 0 0.98959 0 2986.7)
(12855 131.06 0 1.2237 0 2966.9)
(12770 129.72 0 1.3426 0 2947.2)
(12686 128.26 0 1.3769 0 2927.7)
(12602 126.77 0 1.3568 0 2908.5)
(12519 125.29 0 1.3107 0 2889.4)
(12438 123.83 0 1.2633 0 2870.5)
(12357 122.4 0 1.2363 0 2851.8)
(12277 120.96 0 1.2472 0 2833.4)
(12198 119.45 0 1.3108 0 2815.2)
(12120 117.83 0 1.4383 0 2797.3)
(12043 116.02 0 1.6379 0 2779.6)
(11968 113.94 0 1.9141 0 2762.3)
(11894 111.51 0 2.2676 0 2745.3)
(11822 108.65 0 2.6938 0 2728.7)
(11751 105.3 0 3.1821 0 2712.6)
(11683 101.39 0 3.7147 0 2697)
(11618 96.903 0 4.266 0 2682.1)
(11556 91.839 0 4.8025 0 2667.9)
(11497 86.24 0 5.2834 0 2654.4)
(11442 80.194 0 5.6636 0 2641.7)
(11390 73.835 0 5.8974 0 2629.9)
(11343 67.345 0 5.9426 0 2619)
(11299 60.943 0 5.767 0 2608.9)
(11260 54.871 0 5.3538 0 2599.7)
(11224 49.381 0 4.7044 0 2591.2)
(11191 44.707 0 3.8424 0 2583.4)
(11161 41.046 0 2.8152 0 2576.2)
(11132 38.539 0 1.687 0 2569.4)
(11105 37.248 0 0.53461 0 2562.8)
(11078 37.153 0 -0.55859 0 2556.4)
(11051 38.15 0 -1.5143 0 2550)
(11024 40.057 0 -2.2665 0 2543.4)
(10995 42.633 0 -2.7654 0 2536.6)
(10964 45.594 0 -2.984 0 2529.6)
(10932 48.642 0 -2.9182 0 2522.1)
(10898 51.484 0 -2.5828 0 2514.4)
(10863 53.849 0 -2.0121 0 2506.3)
(10826 55.513 0 -1.2553 0 2498)
(10789 56.305 0 -0.37122 0 2489.6)
(10751 56.124 0 0.57643 0 2481.2)
(10714 54.933 0 1.5232 0 2472.9)
(10678 52.764 0 2.4078 0 2464.8)
(10644 49.71 0 3.1761 0 2457.1)
(10612 45.915 0 3.7845 0 2449.8)
(10582 41.565 0 4.2026 0 2443.1)
(10556 36.868 0 4.4157 0 2436.9)
(10532 32.042 0 4.4251 0 2431.4)
(10511 27.294 0 4.2475 0 2426.5)
(10493 22.81 0 3.913 0 2422.3)
(10477 18.737 0 3.4605 0 2418.6)
(10464 15.181 0 2.9335 0 2415.5)
(10453 12.205 0 2.3741 0 2412.8)
(10444 9.8268 0 1.8191 0 2410.5)
(10436 8.0328 0 1.2959 0 2408.6)
(10429 6.7842 0 0.82131 0 2406.9)
(10423 6.0289 0 0.40214 0 2405.3)
(10417 5.71 0 0.037211 0 2403.9)
(10411 5.7728 0 -0.2792 0 2402.5)
(10405 6.1679 0 -0.55374 0 2401)
(10399 6.8502 0 -0.79087 0 2399.6)
(10392 7.7766 0 -0.99091 0 2398)
(10385 8.9017 0 -1.1496 0 2396.3)
(10377 10.174 0 -1.259 0 2394.5)
(10369 11.532 0 -1.3099 0 2392.4)
(10359 12.909 0 -1.2939 0 2390.3)
(10349 14.227 0 -1.2066 0 2387.9)
(10338 15.412 0 -1.0487 0 2385.4)
(10326 16.391 0 -0.82747 0 2382.8)
(10314 17.102 0 -0.55566 0 2380)
(10302 17.499 0 -0.25025 0 2377.2)
(10289 17.555 0 0.07009 0 2374.4)
(10277 17.262 0 0.38764 0 2371.6)
(10265 16.628 0 0.68816 0 2368.9)
(10253 15.672 0 0.96277 0 2366.3)
(10242 14.422 0 1.2089 0 2363.9)
(10232 12.904 0 1.4301 0 2361.6)
(10223 11.138 0 1.6348 0 2359.6)
(10216 9.1357 0 1.834 0 2357.9)
(10210 6.8973 0 2.0394 0 2356.5)
(10205 4.4128 0 2.2599 0 2355.5)
(10202 1.6656 0 2.5003 0 2354.9)
(10201 -1.3618 0 2.7592 0 2354.7)
(10202 -4.6814 0 3.0285 0 2355)
(10205 -8.2934 0 3.294 0 2355.8)
(10211 -12.18 0 3.5364 0 2357.2)
(10219 -16.301 0 3.7328 0 2359.2)
(10230 -20.591 0 3.859 0 2361.7)
(10244 -24.961 0 3.892 0 2364.9)
(10261 -29.3 0 3.8118 0 2368.7)
(10280 -33.475 0 3.6035 0 2373.2)
(10302 -37.348 0 3.2593 0 2378.2)
(10326 -40.772 0 2.78 0 2383.7)
(10353 -43.611 0 2.1766 0 2389.6)
(10381 -45.746 0 1.4708 0 2395.9)
(10410 -47.086 0 0.69533 0 2402.5)
(10440 -47.584 0 -0.1061 0 2409.3)
(10471 -47.241 0 -0.88125 0 2416.1)
(10501 -46.117 0 -1.5725 0 2422.8)
(10530 -44.334 0 -2.122 0 2429.5)
(10558 -42.068 0 -2.4777 0 2435.9)
(10585 -39.543 0 -2.6006 0 2442.1)
(10611 -37.013 0 -2.4713 0 2448.1)
(10635 -34.74 0 -2.0948 0 2453.8)
(10658 -32.963 0 -1.5029 0 2459.3)
(10681 -31.878 0 -0.75205 0 2464.6)
(10703 -31.61 0 0.081493 0 2469.9)
(10725 -32.201 0 0.91125 0 2475.3)
(10748 -33.604 0 1.6512 0 2480.8)
(10772 -35.689 0 2.227 0 2486.5)
(10798 -38.259 0 2.5853 0 2492.4)
(10825 -41.077 0 2.7001 0 2498.7)
(10854 -43.892 0 2.5751 0 2505.4)
(10885 -46.473 0 2.2418 0 2512.3)
(10917 -48.631 0 1.7546 0 2519.6)
(10950 -50.239 0 1.1829 0 2527.1)
(10984 -51.246 0 0.60252 0 2534.8)
(11018 -51.675 0 0.085481 0 2542.6)
(11053 -51.616 0 -0.30944 0 2550.5)
(11087 -51.207 0 -0.54553 0 2558.4)
(11121 -50.607 0 -0.61522 0 2566.2)
(11155 -49.967 0 -0.54415 0 2574)
(11188 -49.394 0 -0.39094 0 2581.7)
(11221 -48.919 0 -0.24136 0 2589.3)
(11253 -48.483 0 -0.1966 0 2596.8)
(11285 -47.924 0 -0.3562 0 2604.1)
(11316 -46.993 0 -0.79807 0 2611.3)
(11347 -45.385 0 -1.5593 0 2618.1)
(11375 -42.788 0 -2.6224 0 2624.5)
(11402 -38.944 0 -3.9103 0 2630.3)
(11426 -33.7 0 -5.2935 0 2635.5)
(11446 -27.055 0 -6.6082 0 2639.8)
(11461 -19.18 0 -7.6819 0 2643.1)
(11471 -10.413 0 -8.3623 0 2645.2)
(11476 -1.2265 0 -8.5409 0 2646.2)
(11474 7.8258 0 -8.1684 0 2646.1)
(11468 16.17 0 -7.257 0 2644.8)
(11457 23.27 0 -5.8724 0 2642.5)
(11442 28.675 0 -4.1162 0 2639.4)
(11424 32.047 0 -2.106 0 2635.8)
(11405 33.169 0 0.042071 0 2631.8)
(11385 31.938 0 2.2268 0 2627.9)
(11368 28.35 0 4.3676 0 2624.3)
(11353 22.477 0 6.4039 0 2621.3)
(11342 14.454 0 8.2915 0 2619.3)
(11337 4.4597 0 9.9959 0 2618.5)
(11339 -7.2894 0 11.488 0 2619.2)
(11348 -20.542 0 12.739 0 2621.6)
(11365 -35.015 0 13.723 0 2625.9)
(11392 -50.396 0 14.415 0 2632.3)
(11428 -66.345 0 14.793 0 2640.7)
(11475 -82.501 0 14.838 0 2651.4)
(11530 -98.478 0 14.534 0 2664.2)
(11596 -113.88 0 13.866 0 2679.2)
(11670 -128.28 0 12.814 0 2696.1)
(11753 -141.23 0 11.358 0 2714.8)
(11842 -152.29 0 9.4755 0 2735.1)
(11938 -160.96 0 7.1495 0 2756.5)
(12037 -166.76 0 4.3761 0 2778.8)
(12139 -169.21 0 1.1731 0 2801.5)
(12240 -167.88 0 -2.4122 0 2824.1)
(12339 -162.4 0 -6.2995 0 2846)
(12432 -152.51 0 -10.378 0 2866.6)
(12517 -138.08 0 -14.512 0 2885.3)
(12592 -119.14 0 -18.556 0 2901.5)
(12652 -95.856 0 -22.363 0 2914.5)
(12696 -68.559 0 -25.806 0 2923.9)
(12721 -37.69 0 -28.783 0 2929)
(12726 -3.7838 0 -31.23 0 2929.5)
(12707 32.577 0 -33.121 0 2924.8)
(12665 70.801 0 -34.47 0 2914.8)
(12598 110.33 0 -35.326 0 2899)
(12505 150.67 0 -35.765 0 2877.5)
(12385 191.41 0 -35.883 0 2849.9)
(12240 232.26 0 -35.787 0 2816.3)
(12068 273.04 0 -35.589 0 2776.6)
(11869 313.67 0 -35.397 0 2730.8)
(11644 354.22 0 -35.316 0 2678.9)
(11393 394.83 0 -35.443 0 2620.9)
(11115 435.77 0 -35.868 0 2556.6)
(10810 477.39 0 -36.683 0 2486.1)
(10478 520.15 0 -37.994 0 2409.2)
(10118 564.61 0 -39.936 0 2325.7)
(9728.9 611.51 0 -42.706 0 2235.3)
(9309.7 661.76 0 -46.607 0 2137.6)
(8858.6 716.56 0 -52.108 0 2032.3)
(8373.8 777.44 0 -59.906 0 1918.6)
(7853.3 846.33 0 -70.861 0 1796)
(7295.9 925.61 0 -85.495 0 1663.9)
(6701.3 1018.3 0 -102.3 0 1522.8)
(6073.2 1129 0 -113.88 0 1375.2)
(5429.6 1267.7 0 -100.14 0 1229.9)
(4850.6 1458 0 -18.946 0 1115)
(4495.7 1712.2 0 176.82 0 1078.3)
(3941 1806.9 0 397.1 0 1001.1)
(1004.4 303.13 0 125.04 0 260.63)
(1.0123 0.19525 0 0.081662 0 0.25245)
(0.0016635 0.00024413 0 4.5523e-05 0 0.0003944)
(9.2258e-05 7.3049e-06 0 3.1788e-06 0 2.2024e-05)
(8.847e-05 5.9932e-06 0 4.1677e-06 0 2.1378e-05)
(7.09e-05 -4.3239e-07 0 -1.3764e-06 0 1.6044e-05)
(8.0787e-05 -1.4444e-06 0 9.182e-07 0 1.8855e-05)
(8.523e-05 -4.3053e-07 0 3.8498e-08 0 1.9677e-05)
(8.6502e-05 -4.1878e-07 0 -6.023e-07 0 1.9823e-05)
(8.718e-05 4.1807e-07 0 -6.4423e-07 0 1.997e-05)
(8.7055e-05 1.1151e-06 0 -5.6929e-07 0 1.9958e-05)
(8.6348e-05 1.561e-06 0 -3.6308e-08 0 1.9918e-05)
(8.542e-05 1.5978e-06 0 2.3051e-07 0 1.9766e-05)
(8.443e-05 1.5581e-06 0 1.0595e-07 0 1.9508e-05)
(8.3363e-05 1.5456e-06 0 -8.3648e-09 0 1.9236e-05)
(8.2234e-05 1.5382e-06 0 -9.6192e-09 0 1.8975e-05)
(8.1133e-05 1.4914e-06 0 3.1645e-08 0 1.873e-05)
(8.0159e-05 1.3926e-06 0 4.7409e-08 0 1.8509e-05)
(7.921e-05 1.3059e-06 0 4.1777e-08 0 1.8289e-05)
(7.8149e-05 1.2914e-06 0 5.7498e-08 0 1.8048e-05)
(7.722e-05 1.2505e-06 0 8.6699e-08 0 1.784e-05)
(7.6598e-05 1.1372e-06 0 9.7325e-08 0 1.7699e-05)
(7.5958e-05 1.0184e-06 0 9.3078e-08 0 1.755e-05)
(7.5333e-05 9.0715e-07 0 9.1454e-08 0 1.7406e-05)
(7.4756e-05 8.0158e-07 0 9.0729e-08 0 1.7272e-05)
(7.4241e-05 7.0106e-07 0 8.7571e-08 0 1.7153e-05)
(7.3785e-05 6.0738e-07 0 8.0955e-08 0 1.7046e-05)
(7.3385e-05 5.2283e-07 0 7.1428e-08 0 1.6952e-05)
(7.3036e-05 4.4934e-07 0 6.0173e-08 0 1.6868e-05)
(7.2729e-05 3.8784e-07 0 4.861e-08 0 1.6795e-05)
(7.2458e-05 3.3807e-07 0 3.7945e-08 0 1.673e-05)
(7.2216e-05 2.9884e-07 0 2.891e-08 0 1.6672e-05)
(7.1997e-05 2.685e-07 0 2.1739e-08 0 1.662e-05)
(7.1796e-05 2.4532e-07 0 1.6277e-08 0 1.6572e-05)
(7.161e-05 2.2779e-07 0 1.2135e-08 0 1.6528e-05)
(7.1434e-05 2.1482e-07 0 8.8388e-09 0 1.6487e-05)
(7.1266e-05 2.0572e-07 0 5.9498e-09 0 1.6447e-05)
(7.1104e-05 2.0018e-07 0 3.1369e-09 0 1.6409e-05)
(7.0944e-05 1.9818e-07 0 2.0207e-10 0 1.6372e-05)
(7.0784e-05 1.9981e-07 0 -2.9237e-09 0 1.6334e-05)
(7.0622e-05 2.0519e-07 0 -6.2047e-09 0 1.6296e-05)
(7.0456e-05 2.1439e-07 0 -9.5399e-09 0 1.6257e-05)
(7.0282e-05 2.2737e-07 0 -1.2801e-08 0 1.6216e-05)
(7.0098e-05 2.4397e-07 0 -1.5865e-08 0 1.6173e-05)
(6.9902e-05 2.6392e-07 0 -1.864e-08 0 1.6127e-05)
(6.9691e-05 2.8687e-07 0 -2.108e-08 0 1.6078e-05)
(6.9465e-05 3.1246e-07 0 -2.3171e-08 0 1.6025e-05)
(6.922e-05 3.4028e-07 0 -2.4942e-08 0 1.5968e-05)
(6.8956e-05 3.699e-07 0 -2.65e-08 0 1.5907e-05)
(6.8672e-05 4.0116e-07 0 -2.7944e-08 0 1.5841e-05)
(6.8366e-05 4.3473e-07 0 -2.8964e-08 0 1.577e-05)
(6.8038e-05 4.6927e-07 0 -2.9462e-08 0 1.5694e-05)
(6.7688e-05 5.0376e-07 0 -2.9952e-08 0 1.5614e-05)
(6.7315e-05 5.3915e-07 0 -3.0601e-08 0 1.5527e-05)
(6.6916e-05 5.754e-07 0 -3.1214e-08 0 1.5435e-05)
(6.6492e-05 6.1241e-07 0 -3.1788e-08 0 1.5337e-05)
(6.6043e-05 6.5013e-07 0 -3.2344e-08 0 1.5233e-05)
(6.5568e-05 6.8853e-07 0 -3.2898e-08 0 1.5123e-05)
(6.5066e-05 7.276e-07 0 -3.3458e-08 0 1.5008e-05)
(6.4538e-05 7.6735e-07 0 -3.4028e-08 0 1.4886e-05)
(6.3983e-05 8.0777e-07 0 -3.4613e-08 0 1.4757e-05)
(6.34e-05 8.4889e-07 0 -3.5212e-08 0 1.4623e-05)
(6.2789e-05 8.9069e-07 0 -3.5822e-08 0 1.4481e-05)
(6.2149e-05 9.332e-07 0 -3.6437e-08 0 1.4334e-05)
(6.148e-05 9.764e-07 0 -3.705e-08 0 1.4179e-05)
(6.0782e-05 1.0203e-06 0 -3.7651e-08 0 1.4018e-05)
(6.0053e-05 1.0648e-06 0 -3.8228e-08 0 1.385e-05)
(5.9295e-05 1.11e-06 0 -3.8768e-08 0 1.3674e-05)
(5.8505e-05 1.1557e-06 0 -3.9259e-08 0 1.3492e-05)
(5.7685e-05 1.2019e-06 0 -3.9686e-08 0 1.3303e-05)
(5.6833e-05 1.2485e-06 0 -4.0036e-08 0 1.3106e-05)
(5.595e-05 1.2954e-06 0 -4.0295e-08 0 1.2902e-05)
(5.5035e-05 1.3426e-06 0 -4.0451e-08 0 1.2691e-05)
(5.4088e-05 1.3897e-06 0 -4.049e-08 0 1.2473e-05)
(5.311e-05 1.4369e-06 0 -4.0401e-08 0 1.2247e-05)
(5.2101e-05 1.4837e-06 0 -4.0174e-08 0 1.2014e-05)
(5.106e-05 1.5302e-06 0 -3.9799e-08 0 1.1774e-05)
(4.9988e-05 1.5762e-06 0 -3.9267e-08 0 1.1527e-05)
(4.8886e-05 1.6213e-06 0 -3.857e-08 0 1.1272e-05)
(4.7754e-05 1.6655e-06 0 -3.77e-08 0 1.1011e-05)
(4.6593e-05 1.7086e-06 0 -3.6651e-08 0 1.0744e-05)
(4.5403e-05 1.7503e-06 0 -3.5418e-08 0 1.047e-05)
(4.4187e-05 1.7903e-06 0 -3.3996e-08 0 1.0189e-05)
(4.2945e-05 1.8286e-06 0 -3.2381e-08 0 9.9028e-06)
(4.1678e-05 1.8649e-06 0 -3.057e-08 0 9.6108e-06)
(4.0387e-05 1.8989e-06 0 -2.8561e-08 0 9.3136e-06)
(3.9076e-05 1.9305e-06 0 -2.6354e-08 0 9.0113e-06)
(3.7744e-05 1.9593e-06 0 -2.395e-08 0 8.7046e-06)
(3.6394e-05 1.9852e-06 0 -2.135e-08 0 8.3938e-06)
(3.5029e-05 2.0079e-06 0 -1.856e-08 0 8.0793e-06)
(3.365e-05 2.0272e-06 0 -1.5583e-08 0 7.7617e-06)
(3.2259e-05 2.043e-06 0 -1.2426e-08 0 7.4416e-06)