/*--------------------------------*- C++ -*----------------------------------*\
| =========                 |                                                 |
| \\      /  F ield         | OpenFOAM: The Open Source CFD Toolbox           |
|  \\    /   O peration     | Version:  5.x                                   |
|   \\  /    A nd           | Web:      www.OpenFOAM.org                      |
|    \\/     M anipulation  |                                                 |
\*---------------------------------------------------------------------------*/
FoamFile
{
    version     2.0;
    format      ascii;
    class       volScalarField;
    location    "200";
    object      gamma;
}
// * * * * * * * * * * * * * * * * * * * * * * * * * * * * * * * * * * * * * //

dimensions      [0 0 0 0 0 0 0];

internalField   nonuniform List<scalar> 
86400
(
2.143e-08
2.894e-08
5.385e-08
1.306e-07
3.879e-07
7.445e-07
9.338e-07
1.082e-06
1.281e-06
1.151e-06
1.728e-06
1.982e-06
2.004e-06
1.195e-06
7.836e-07
7.8e-07
2.305e-06
7.905e-06
1.711e-05
2.243e-05
2.432e-05
3.386e-05
8.317e-05
0.0001276
0.000153
0.0002572
0.000255
0.0002896
0.0003027
0.0002633
0.000211
0.0001803
0.000186
0.000203
0.0002765
0.0004143
0.0005416
0.0006919
0.0006785
0.0008452
0.0008733
0.0009423
0.0008063
0.0005522
0.0005222
0.0007569
0.001378
0.002024
0.002696
0.002116
0.001905
0.001928
0.002139
0.002646
0.003333
0.004864
0.007181
0.0084
0.008061
0.007226
0.005501
0.005464
0.005411
0.006107
0.008456
0.01249
0.01321
0.01267
0.008504
0.007057
0.008793
0.01431
0.01705
0.01446
0.01214
0.01047
0.008742
0.01025
0.01315
0.01254
0.01256
0.01112
0.01066
0.01293
0.01967
0.02305
0.02527
0.02297
0.0239
0.02337
0.01697
0.01555
0.0151
0.01948
0.02138
0.02255
0.01722
0.01571
0.01518
0.01404
0.01222
0.00811
0.005248
0.002933
0.001758
0.001901
0.003316
0.005743
0.004435
0.002321
0.0009584
0.000617
0.0006988
0.0009487
0.0009787
0.0008611
0.0007334
0.0006288
0.0005864
0.0005653
0.0005452
0.0005144
0.0004229
0.0003057
0.00023
0.0001945
0.0001672
0.0001622
0.0001522
0.0001319
0.0001043
0.0001142
9.432e-05
5.84e-05
3.799e-05
2.818e-05
3.369e-05
6.293e-05
4.166e-05
1.19e-05
3.641e-06
1.627e-06
1.558e-06
1.025e-06
1.892e-07
1.914e-08
2.226e-09
1.627e-10
3.572e-11
2.837e-11
3.98e-11
1.785e-10
2.608e-09
2.271e-08
3.245e-07
2.998e-06
1.724e-05
8.32e-05
0.06561
0.9996
3.017e-08
3.289e-08
5.343e-08
1.095e-07
3.389e-07
6.573e-07
7.846e-07
7.427e-07
5.631e-07
3.995e-07
5.934e-07
8.892e-07
1.541e-06
1.938e-06
1.521e-06
1.022e-06
2.38e-06
7.83e-06
2.175e-05
5.965e-05
8.063e-05
9.712e-05
0.0001496
0.0002097
0.0002533
0.0003289
0.0003553
0.0004113
0.0004972
0.0003739
0.0003036
0.0002694
0.0003062
0.0003626
0.0005396
0.0008254
0.001278
0.00193
0.002364
0.002925
0.002606
0.002204
0.001853
0.001324
0.0009986
0.001244
0.001785
0.002493
0.00375
0.003943
0.004089
0.004861
0.00638
0.008233
0.007101
0.005702
0.004641
0.003575
0.002822
0.002915
0.002542
0.002467
0.002218
0.002159
0.002474
0.004264
0.005334
0.006365
0.005373
0.005731
0.008132
0.0125
0.009565
0.005965
0.003426
0.003358
0.00507
0.009907
0.01509
0.01498
0.01347
0.01162
0.0133
0.0172
0.02852
0.03603
0.04359
0.04205
0.04876
0.05639
0.05229
0.05202
0.04729
0.03983
0.03137
0.0241
0.01603
0.013
0.01167
0.01004
0.009782
0.009693
0.01062
0.009171
0.005739
0.004533
0.005567
0.007455
0.00657
0.003995
0.001526
0.0008592
0.0006125
0.0005287
0.0004323
0.000433
0.0006132
0.001119
0.001847
0.00206
0.00201
0.001859
0.001476
0.001045
0.0008061
0.0007124
0.0006257
0.0006211
0.0005667
0.0004759
0.0003777
0.0003137
0.0001967
0.0001275
9.955e-05
7.48e-05
8.025e-05
9.7e-05
5.573e-05
1.399e-05
5.407e-06
1.823e-06
8.958e-07
4.331e-07
8.658e-08
1.429e-08
2.994e-09
7.217e-10
8.408e-10
1.534e-09
4.677e-09
1.854e-08
1.514e-07
1.1e-06
2.26e-05
0.0006001
0.02742
0.783
0.9889
1
5.438e-08
5.229e-08
7.411e-08
1.219e-07
3.36e-07
5.821e-07
6.114e-07
4.941e-07
2.844e-07
2.376e-07
3.863e-07
9.382e-07
1.943e-06
3.667e-06
2.817e-06
2.387e-06
6.641e-06
2.427e-05
4.835e-05
0.0001209
0.0001098
0.0001152
0.0001793
0.0002838
0.0002878
0.0004317
0.0005625
0.0007835
0.001123
0.0009189
0.000692
0.0007717
0.0008729
0.0008628
0.0008705
0.0008962
0.001144
0.001645
0.001532
0.001573
0.001166
0.001037
0.0008831
0.0008394
0.0007346
0.001107
0.002109
0.003484
0.00574
0.007169
0.00575
0.004332
0.003511
0.003136
0.002204
0.002125
0.001821
0.001324
0.0009676
0.001015
0.001037
0.00117
0.001308
0.001715
0.001731
0.002225
0.002609
0.003216
0.002934
0.003808
0.005173
0.005583
0.003177
0.002298
0.001957
0.003525
0.008721
0.01971
0.02848
0.03114
0.02764
0.02155
0.02402
0.03021
0.05434
0.06763
0.08345
0.08691
0.08211
0.06844
0.04599
0.02967
0.01737
0.01496
0.01313
0.01206
0.011
0.01106
0.009486
0.008358
0.009255
0.01166
0.01627
0.01669
0.01299
0.01082
0.009704
0.01126
0.009818
0.006202
0.003285
0.002554
0.001523
0.001103
0.0008631
0.0009558
0.001222
0.00179
0.002122
0.001602
0.00128
0.001283
0.00107
0.0008027
0.0006229
0.000527
0.0004338
0.0004027
0.0003416
0.000313
0.0002939
0.0002411
0.0001331
6.413e-05
4.345e-05
3.553e-05
5.506e-05
8.63e-05
6.865e-05
2.387e-05
7.537e-06
2.279e-06
1.195e-06
6.061e-07
1.984e-07
4.788e-08
1.524e-08
7.936e-09
2.024e-08
6.195e-08
2.703e-07
9.751e-07
8.554e-06
9.148e-05
0.002533
0.1534
0.9431
0.9987
1
1
1.04e-07
9.659e-08
1.062e-07
1.305e-07
2.802e-07
3.893e-07
3.175e-07
2.156e-07
1.311e-07
1.647e-07
2.459e-07
3.162e-07
3.403e-07
1.044e-06
1.348e-06
2.401e-06
7.2e-06
1.257e-05
1.058e-05
1.254e-05
8.825e-06
6.104e-06
1.458e-05
3.177e-05
3.369e-05
6.487e-05
0.000128
0.0002252
0.0004464
0.0005313
0.0004133
0.0006462
0.0009591
0.001132
0.001128
0.001076
0.001159
0.001661
0.001256
0.001198
0.0009969
0.0009857
0.001249
0.001599
0.001033
0.001009
0.0009693
0.001112
0.001566
0.002336
0.001666
0.001093
0.0009804
0.0009631
0.0006937
0.0006861
0.0005138
0.0003625
0.0003193
0.0004513
0.0005704
0.0008201
0.001118
0.001311
0.001195
0.001468
0.001531
0.001722
0.00169
0.002944
0.005309
0.00563
0.003718
0.003195
0.002277
0.004567
0.01115
0.02042
0.02093
0.02394
0.02063
0.01752
0.01857
0.01957
0.02412
0.02684
0.03336
0.03899
0.0465
0.05616
0.06053
0.05228
0.03053
0.02429
0.01854
0.01577
0.01537
0.01694
0.0145
0.01433
0.01409
0.01404
0.02089
0.02212
0.01548
0.0118
0.007388
0.007128
0.006482
0.005599
0.00298
0.002699
0.001435
0.0009218
0.0006666
0.0009233
0.001634
0.002983
0.003644
0.002591
0.00186
0.001918
0.001698
0.001366
0.001109
0.0009481
0.0007704
0.0007028
0.0006304
0.0006257
0.0006559
0.0005597
0.000303
0.0001462
8.805e-05
4.152e-05
3.285e-05
2.187e-05
1.088e-05
4.549e-06
1.41e-06
4.232e-07
2.822e-07
2.593e-07
2.127e-07
1.327e-07
1.142e-07
1.477e-07
1.081e-06
7.044e-06
6.524e-05
0.0003814
0.003659
0.06122
0.8074
0.9906
0.9999
1
1
1
2.552e-07
2.812e-07
2.694e-07
2.851e-07
3.814e-07
3.24e-07
1.49e-07
1.109e-07
9.329e-08
1.657e-07
1.964e-07
1.117e-07
4.842e-08
1.606e-07
3.263e-07
1.945e-06
1.359e-05
8.839e-06
1.671e-06
1.03e-06
8.471e-07
6.741e-07
3.221e-06
7.715e-06
9.886e-06
3.25e-05
0.0001311
0.0005164
0.001374
0.001339
0.0004673
0.0004029
0.0003882
0.0004179
0.0004521
0.0004351
0.0003593
0.0006047
0.0006907
0.001101
0.0008802
0.0006322
0.0002683
0.0001496
5.863e-05
5.162e-05
4.252e-05
5.815e-05
0.0001321
0.0004155
0.0005364
0.0005869
0.0005325
0.0006037
0.0005133
0.0005716
0.0004859
0.0003718
0.0004752
0.0009229
0.001595
0.002727
0.004472
0.005262
0.003298
0.002135
0.001611
0.001341
0.001146
0.001822
0.003302
0.002998
0.002945
0.003782
0.004204
0.006617
0.01257
0.01249
0.00961
0.01223
0.01142
0.01028
0.01176
0.01426
0.01987
0.02771
0.03785
0.04331
0.0515
0.06052
0.05731
0.05691
0.03325
0.02376
0.01585
0.01462
0.009531
0.009644
0.009113
0.007671
0.004682
0.002207
0.001709
0.001944
0.002438
0.005091
0.006124
0.00532
0.0045
0.006624
0.004581
0.005055
0.003108
0.002229
0.001502
0.001405
0.001248
0.001269
0.0009049
0.0006818
0.0004937
0.0005358
0.0005016
0.0004541
0.0004128
0.0003763
0.0003148
0.0002952
0.0002849
0.0003157
0.0003576
0.0002635
0.0001064
3.408e-05
6.247e-06
1.35e-06
7.943e-07
9.561e-07
7.374e-07
5.942e-07
2.719e-07
1.467e-07
1.671e-07
3.381e-07
8.15e-07
1.621e-06
3.846e-06
1.189e-05
0.0001221
0.0008538
0.009111
0.08343
0.6787
0.9712
0.9988
1
1
1
1
1
4.163e-07
6.353e-07
6.024e-07
6.356e-07
4.287e-07
2.318e-07
8.055e-08
7.226e-08
1.051e-07
3.253e-07
4.1e-07
1.028e-07
2.03e-08
4.178e-08
2.797e-07
2.618e-06
1.46e-05
5.243e-06
7.75e-07
5.757e-07
1.027e-06
1.304e-06
8.435e-06
5.082e-06
2.404e-06
3.255e-06
1.11e-05
5.541e-05
0.0003649
0.0003545
9.715e-05
6.299e-05
5.71e-05
6.976e-05
0.0001475
0.0001903
0.0001104
0.0001289
0.0001497
0.0001417
5.868e-05
2.548e-05
4.826e-06
1.442e-06
5.047e-07
1.725e-07
2.829e-08
2.754e-08
7.312e-08
4.386e-07
1.221e-06
4.034e-06
1.06e-05
2.218e-05
3.098e-05
2.973e-05
2.052e-05
2.418e-05
0.0001087
0.0005725
0.002069
0.003331
0.002661
0.002045
0.001104
0.0006996
0.001252
0.001924
0.002006
0.003453
0.006622
0.005048
0.004457
0.004303
0.002821
0.002338
0.00141
0.0009557
0.0008301
0.001726
0.003743
0.01164
0.02179
0.03115
0.03729
0.04053
0.04353
0.05332
0.08986
0.1533
0.1234
0.03605
0.004638
0.0007978
0.0001946
0.0001255
6.131e-05
6.415e-05
6.476e-05
0.0001186
0.0001791
0.0001941
0.0001542
0.0001417
0.0001497
0.0003852
0.0005911
0.001137
0.001757
0.001812
0.001
0.00103
0.0008101
0.0008059
0.0006467
0.0005752
0.000468
0.0004373
0.0003494
0.0002993
0.000219
0.0002179
0.0002016
0.0001958
0.0001863
0.0001581
0.0001215
8.791e-05
5.711e-05
3.13e-05
2.241e-05
1.757e-05
1.302e-05
9.671e-06
3.123e-06
6.739e-07
2.547e-07
2.436e-07
2.566e-07
3.93e-07
2.85e-07
2.722e-07
5.073e-07
2.2e-06
1.346e-05
6.601e-05
0.000315
0.001846
0.01749
0.1548
0.8297
0.9783
0.9983
1
1
1
1
1
1
1
4.909e-07
1.032e-06
8.651e-07
7.38e-07
3.725e-07
1.836e-07
6.313e-08
1.091e-07
4.237e-07
1.899e-06
1.969e-06
3.358e-07
2.168e-08
2.392e-08
7.508e-08
1.2e-06
1.314e-05
1.444e-05
4.095e-06
4.373e-06
1.098e-05
1.305e-05
5.075e-05
9.597e-06
2.55e-06
1.713e-06
4.255e-06
1.672e-05
0.0001685
0.0001837
5.191e-05
1.993e-05
1.978e-05
3.468e-05
8.885e-05
0.0001002
3.363e-05
2.586e-05
4.513e-05
4.651e-05
1.196e-05
2.136e-06
1.217e-07
1.45e-08
4.29e-09
4.789e-10
3.1e-11
2.06e-11
5.53e-11
6.102e-10
3.339e-09
1.699e-08
7.074e-08
2.508e-07
5.133e-07
5.756e-07
5.483e-07
1.246e-06
1.773e-05
0.000179
0.001333
0.003067
0.002513
0.002583
0.002616
0.001819
0.004251
0.007242
0.00684
0.006223
0.009414
0.003104
0.001135
0.0006396
0.000461
0.0005864
0.0003092
0.0001555
5.384e-05
5.656e-05
0.0001572
0.001793
0.00763
0.009579
0.00789
0.004786
0.004217
0.009467
0.06085
0.2536
0.1625
0.03308
0.002832
0.0003754
7.997e-05
5.286e-05
1.372e-05
8.236e-06
4.334e-06
1.311e-05
3.896e-05
6.59e-05
6.395e-05
2.564e-05
9.214e-06
7.408e-06
7.448e-06
1.1e-05
5.159e-05
0.0001134
0.0002026
0.0004183
0.0005016
0.0006903
0.0007343
0.0006624
0.0004032
0.0002948
0.0002017
0.0002159
0.0002016
0.0001755
0.0001159
5.814e-05
2.915e-05
1.76e-05
1.463e-05
1.361e-05
1.184e-05
5.777e-06
3.594e-06
3.428e-06
4.257e-06
5.572e-06
3.24e-06
1.081e-06
7.112e-07
1.521e-06
3.713e-06
1.433e-05
2.85e-05
4.872e-05
0.00012
0.0005644
0.003354
0.02158
0.1474
0.7223
0.9549
0.9938
0.9996
1
1
1
1
1
1
1
1
1
8.79e-07
1.74e-06
1.025e-06
7.371e-07
4.115e-07
2.309e-07
1.297e-07
5.157e-07
1.835e-06
3.677e-06
3.648e-06
4.887e-07
2.891e-08
2.462e-08
6.19e-08
6.993e-07
8.846e-06
2.978e-05
4.588e-05
0.0001819
0.0003676
0.0003223
0.0005753
0.0001091
1.925e-05
3.431e-06
5.317e-06
1.216e-05
9.564e-05
0.000147
6.867e-05
5.664e-05
5.677e-05
9.827e-05
0.0001832
0.0001662
5.197e-05
5.121e-05
0.0001468
6.547e-05
8.582e-06
5.176e-07
2.574e-08
1.775e-09
6.418e-10
3.256e-11
1.233e-12
6.389e-13
1.996e-12
2.66e-11
2.228e-10
2.187e-09
2.24e-08
1.632e-07
3.423e-07
1.255e-07
4.438e-08
5.703e-08
7.713e-07
1.273e-05
0.0002576
0.001399
0.001841
0.002621
0.003585
0.00299
0.005942
0.005737
0.002328
0.0005461
0.0003131
9.964e-05
2.972e-05
1.546e-05
2.028e-05
3.694e-05
2.999e-05
7.14e-05
4.746e-05
9.37e-05
0.000359
0.009212
0.06176
0.1106
0.05982
0.04074
0.1907
0.8264
0.9853
0.9967
0.9942
0.9706
0.7803
0.1246
0.03314
0.01537
0.00152
0.0003186
6.183e-05
6.112e-05
8.646e-05
0.0002509
6.865e-05
4.167e-06
2.809e-07
1.003e-07
2.172e-07
7.392e-07
4.85e-06
4.544e-06
6.352e-06
1.003e-05
1.709e-05
3.356e-05
3.675e-05
3.129e-05
3.153e-05
3.221e-05
3.11e-05
6.016e-05
0.0001091
0.0001577
0.0001425
7.062e-05
2.722e-05
1.432e-05
1.302e-05
1.41e-05
1.524e-05
7.615e-06
4.565e-06
4.267e-06
1.127e-05
3.403e-05
5.992e-05
4.39e-05
3.857e-05
6.63e-05
0.0002056
0.001226
0.004895
0.01539
0.05104
0.2493
0.8109
0.9717
0.9958
0.9996
1
1
1
1
1
1
1
1
1
1
1
1
1.509e-06
2.042e-06
9.224e-07
5.846e-07
3.485e-07
2.761e-07
4.078e-07
1.397e-06
2.577e-06
3.097e-06
1.539e-06
3.038e-07
7.057e-08
7.8e-08
2.09e-07
1.177e-06
4.421e-06
1.71e-05
4.663e-05
7.461e-05
0.0001609
0.0002964
0.001033
0.0007009
0.000252
6.753e-05
3.003e-05
4.241e-05
0.0001455
0.0002579
0.0001871
0.0003013
0.0002592
0.0003594
0.0002938
0.000127
2.282e-05
3.643e-05
9.94e-05
1.744e-05
1.381e-06
6.218e-08
4.748e-09
5.804e-10
5.762e-10
6.932e-11
7.842e-12
4.921e-12
1.386e-11
3.303e-11
1.248e-10
6.214e-10
4.291e-09
2.68e-08
6.58e-08
3.028e-08
8.599e-09
8.362e-09
6.659e-08
1.442e-06
7.184e-05
0.0009614
0.003107
0.005282
0.004361
0.001288
0.0007043
0.0002786
6.897e-05
1.322e-05
7.878e-06
4.5e-06
2.22e-06
1.853e-06
1.28e-05
0.0001829
0.00081
0.008695
0.02066
0.05598
0.5019
0.9465
0.9903
0.9961
0.9967
0.9978
0.9994
0.9999
1
1
1
0.9997
0.9988
0.9965
0.9969
0.9954
0.9767
0.8268
0.1294
0.03077
0.02184
0.0292
0.00382
8.216e-05
3.584e-06
2.583e-07
1.345e-07
1.973e-07
5.219e-07
1.309e-07
9.504e-08
6.479e-08
8.215e-08
2.419e-07
1.122e-06
5.012e-06
1.169e-05
1.127e-05
7.632e-06
7.119e-06
1.158e-05
2.686e-05
3.935e-05
2.78e-05
1.199e-05
5.585e-06
5.95e-06
9.964e-06
1.858e-05
1.857e-05
2.177e-05
3.779e-05
0.0001204
0.0005312
0.002308
0.005421
0.01208
0.03796
0.207
0.782
0.9522
0.9889
0.9966
0.9989
0.9998
1
1
1
1
1
1
1
1
1
1
1
1
1
1
1
1.16e-06
1.159e-06
6.251e-07
4.514e-07
4.122e-07
5.788e-07
7.951e-07
1.396e-06
1.471e-06
1.225e-06
3.975e-07
1.659e-07
1.326e-07
2.41e-07
9.357e-07
2.743e-06
1.154e-05
1.509e-05
2.237e-05
1.129e-05
1.725e-05
5.031e-05
0.0003124
0.0008851
0.000795
0.0002636
5.846e-05
7.119e-05
0.0001019
0.0002867
0.0005683
0.001804
0.001784
0.001977
0.0004944
0.0001288
4.269e-05
8.369e-05
7.695e-05
4.832e-06
2.441e-07
1.015e-08
1.771e-09
8.638e-10
1.34e-09
3.31e-10
1.714e-10
2.096e-10
2.178e-10
1.284e-10
1.174e-10
1.595e-10
1.291e-09
1.512e-08
5.224e-08
3.892e-08
1.913e-08
1.532e-08
6.16e-08
1.232e-06
4.205e-05
0.000731
0.001734
0.001628
0.0005287
7.524e-05
1.503e-05
6.778e-06
3.747e-06
2.031e-06
3.89e-06
1.003e-05
3.646e-05
0.0001734
0.002071
0.028
0.2224
0.8427
0.9674
0.9926
0.9991
0.9999
1
1
1
1
1
1
1
1
1
1
1
1
1
1
1
0.9999
0.9993
0.9966
0.9898
0.9786
0.8896
0.1321
0.001916
8.908e-05
1.311e-05
6.979e-06
4.427e-06
1.968e-07
1.552e-08
2.563e-09
1.424e-09
1.496e-09
1.486e-08
2.167e-07
9.981e-07
2.122e-06
2.537e-06
1.675e-06
3.372e-06
2.063e-05
6.249e-05
0.00012
0.0001454
0.0001341
0.0002297
0.0005562
0.001614
0.002949
0.005412
0.01057
0.03014
0.1944
0.7837
0.9497
0.9875
0.996
0.9986
0.9997
1
1
1
1
1
1
1
1
1
1
1
1
1
1
1
1
1
1
1
1
9.518e-07
7.159e-07
5.349e-07
6.763e-07
1.129e-06
7.878e-07
3.23e-07
2.105e-07
1.249e-07
1.204e-07
1.023e-07
1.029e-07
3.134e-07
1.5e-06
4.112e-06
1.239e-05
2.441e-05
1.009e-05
7.717e-06
2.013e-06
2.86e-06
5.893e-06
7.17e-05
0.0005053
0.001114
0.0006987
0.0004929
0.0003906
0.0002539
0.0004673
0.0005905
0.0009584
0.0006238
0.0004629
0.0001284
4.043e-05
2.926e-05
0.0001254
7.136e-05
5.424e-06
1.589e-07
9.703e-09
1.007e-09
4.687e-10
4.024e-10
5.063e-10
4.19e-09
1.823e-08
1.982e-08
2.964e-09
2.567e-10
7.525e-11
6.209e-10
2.134e-08
2.816e-07
1.127e-06
1.134e-06
6.585e-07
1.223e-06
1.38e-05
0.0001229
0.0004309
0.0003465
0.0001303
2.359e-05
5.202e-06
2.012e-06
3.228e-06
9.234e-06
2.798e-05
0.0001309
0.002253
0.01991
0.2313
0.8949
0.9877
0.9985
0.9998
1
1
1
1
1
1
1
1
1
1
1
1
1
1
1
1
1
1
1
1
1
1
1
1
0.9999
0.9988
0.9895
0.892
0.1697
0.01432
0.001748
5.661e-05
1.885e-06
1.048e-07
2.569e-08
1.881e-08
2.112e-07
3.051e-06
1.163e-05
1.987e-05
2.622e-05
1.364e-05
2.543e-05
0.0001655
0.0007861
0.003195
0.008751
0.0112
0.014
0.03041
0.1618
0.749
0.9571
0.99
0.9967
0.999
0.9998
1
1
1
1
1
1
1
1
1
1
1
1
1
1
1
1
1
1
1
1
1
1
1
1
1
8.475e-07
6.159e-07
6.139e-07
1.056e-06
2.01e-06
1.342e-06
2.46e-07
8.161e-08
2.522e-08
5.587e-08
8.072e-08
4.822e-07
2.618e-06
6.824e-06
1.697e-05
5.844e-05
5.395e-05
2.92e-05
1.466e-05
3.244e-06
4.521e-06
1.227e-05
0.0001213
0.000494
0.001037
0.0008364
0.001201
0.0009634
0.0008897
0.001048
0.001153
0.001022
0.0004652
0.0001742
9.794e-05
5.034e-05
6.33e-05
0.0003288
8.581e-05
4.781e-06
1.063e-07
3.206e-09
1.937e-10
1.011e-10
4.651e-11
1.59e-10
3.049e-09
5.675e-08
6.876e-08
8.851e-09
3.196e-10
9.55e-11
1.213e-09
9.735e-08
2.884e-06
1.388e-05
2.083e-05
1.68e-05
1.671e-05
3.612e-05
2.704e-05
1.298e-05
5.02e-06
2.343e-06
1.069e-06
2.318e-06
9.911e-06
0.000105
0.001681
0.01937
0.2082
0.8968
0.9879
0.9984
0.9999
1
1
1
1
1
1
1
1
1
1
1
1
1
1
1
1
1
1
1
1
1
1
1
1
1
1
1
1
1
1
0.9999
0.9994
0.9978
0.9866
0.8792
0.1303
0.007764
0.002361
0.002062
0.007152
0.02277
0.02121
0.01801
0.01859
0.008698
0.008271
0.01931
0.07339
0.6496
0.9429
0.9879
0.9962
0.9979
0.9991
0.9998
1
1
1
1
1
1
1
1
1
1
1
1
1
1
1
1
1
1
1
1
1
1
1
1
1
1
1
1
1
1
3.476e-07
3.256e-07
3.829e-07
6.448e-07
1.835e-06
1.561e-06
2.44e-07
7.479e-08
6.002e-08
1.552e-07
5.019e-07
4.771e-06
1.226e-05
2.756e-05
4.749e-05
7.572e-05
6.56e-05
4.936e-05
2.392e-05
7.267e-06
9.716e-06
2.486e-05
0.0001367
0.0003099
0.0006902
0.0007402
0.001989
0.001994
0.002649
0.002259
0.002964
0.002006
0.001174
0.0006215
0.0003298
0.000195
0.0002677
0.0008955
0.0001325
9.881e-06
3.152e-07
1.058e-08
3.285e-10
2.022e-10
7.97e-11
4.652e-10
1.739e-08
6.954e-07
6.539e-07
1.085e-07
1.904e-09
3.233e-10
2e-09
1.375e-07
2.772e-06
1.552e-05
2.881e-05
2.452e-05
2.023e-05
1.457e-05
4.704e-06
1.306e-06
5.279e-07
9.896e-07
5.427e-06
9.227e-05
0.002983
0.1351
0.8572
0.9815
0.9973
0.9998
1
1
1
1
1
1
1
1
1
1
1
1
1
1
1
1
1
1
1
1
1
1
1
1
1
1
1
1
1
1
1
1
1
1
1
1
1
0.9999
0.9995
0.999
0.9988
0.9985
0.9989
0.9991
0.9983
0.9982
0.9985
0.9981
0.9981
0.9983
0.9988
0.9997
1
1
1
1
1
1
1
1
1
1
1
1
1
1
1
1
1
1
1
1
1
1
1
1
1
1
1
1
1
1
1
1
1
1
1
1
4.069e-07
3.451e-07
4.6e-07
6.168e-07
1.783e-06
2.671e-06
7.201e-07
4.549e-07
3.352e-07
9.195e-07
2.971e-06
1.973e-05
2.673e-05
3.969e-05
3.69e-05
4.38e-05
4.862e-05
4.671e-05
3.503e-05
3.132e-05
5.84e-05
0.0001225
0.0002526
0.0002702
0.000294
0.0002643
0.0008727
0.0009699
0.001882
0.00306
0.005085
0.004647
0.004574
0.002195
0.0008114
0.0003135
0.0002391
0.0005602
0.0002131
5.991e-05
4.689e-06
2.902e-07
1.282e-08
8.295e-09
4.248e-09
2.638e-08
4.661e-07
1.5e-05
2.055e-05
6.765e-06
2.004e-07
4.983e-08
1.421e-07
1.634e-06
1.128e-05
1.597e-05
1.115e-05
6.638e-06
3.801e-06
2.251e-06
1.681e-06
1.34e-06
4.857e-06
7.504e-05
0.002928
0.1627
0.9256
0.9943
0.9994
0.9999
1
1
1
1
1
1
1
1
1
1
1
1
1
1
1
1
1
1
1
1
1
1
1
1
1
1
1
1
1
1
1
1
1
1
1
1
1
1
1
1
1
1
1
1
1
1
1
1
1
1
1
1
1
1
1
1
1
1
1
1
1
1
1
1
1
1
1
1
1
1
1
1
1
1
1
1
1
1
1
1
1
1
1
1
1
1
1
1
1
1
1.007e-06
8.063e-07
1.366e-06
6.826e-07
1.247e-06
9.78e-07
5.956e-07
1.402e-06
3.565e-06
3.204e-06
4.692e-06
1.019e-05
1.676e-05
2.432e-05
2.912e-05
1.368e-05
2.835e-06
7.098e-07
2.929e-07
2.415e-07
9.146e-07
5.002e-06
2.893e-05
7.453e-05
0.0001293
0.0001359
0.0003105
0.0002947
0.0004331
0.0005514
0.0009831
0.001906
0.004019
0.002829
0.000917
0.0002533
0.0001356
0.0003463
0.0003416
0.0003329
0.0001024
1.64e-05
1.752e-06
1.374e-06
7.855e-07
5.233e-06
3.497e-05
0.0004364
0.000704
0.000378
3.691e-05
7.608e-06
6.206e-06
9.039e-06
1.638e-05
6.442e-06
3.047e-06
1.46e-06
1.752e-06
3.296e-06
1.911e-05
0.0001126
0.002723
0.1755
0.9307
0.9942
0.9997
1
1
1
1
1
1
1
1
1
1
1
1
1
1
1
1
1
1
1
1
1
1
1
1
1
1
1
1
1
1
1
1
1
1
1
1
1
1
1
1
1
1
1
1
1
1
1
1
1
1
1
1
1
1
1
1
1
1
1
1
1
1
1
1
1
1
1
1
1
1
1
1
1
1
1
1
1
1
1
1
1
1
1
1
1
1
1
1
1
1
1
1
1
3.261e-06
2.968e-06
6.594e-06
1.373e-06
1.023e-06
7.014e-07
1.059e-06
6.059e-06
2.043e-05
9.397e-06
5.467e-06
3.664e-06
2.892e-06
1.394e-05
9.283e-06
8.938e-07
8.927e-08
1.001e-08
3.467e-09
2.928e-09
2.449e-08
5.408e-07
8.397e-06
5.185e-05
0.0001953
0.0001865
0.0003246
0.0003856
0.0003696
0.0004029
0.0007956
0.002225
0.006245
0.006629
0.002112
0.0004427
0.0002285
0.0004058
0.0006327
0.001179
0.001192
0.0004904
0.0001547
0.0001765
0.0001189
0.0001445
0.0002379
0.0008002
0.002027
0.003548
0.001863
0.0004745
0.0002152
5.149e-05
2.943e-05
6.15e-06
3.885e-06
3.647e-06
2.536e-05
0.000129
0.00554
0.1727
0.9129
0.9938
0.9997
1
1
1
1
1
1
1
1
1
1
1
1
1
1
1
1
1
1
1
1
1
1
1
1
1
1
1
1
1
1
1
1
1
1
1
1
1
1
1
1
1
1
1
1
1
1
1
1
1
1
1
1
1
1
1
1
1
1
1
1
1
1
1
1
1
1
1
1
1
1
1
1
1
1
1
1
1
1
1
1
1
1
1
1
1
1
1
1
1
1
1
1
1
1
1
7.166e-06
7.787e-06
3.371e-05
6.229e-06
1.162e-06
4.996e-07
1.471e-06
9.204e-06
3.343e-05
1.699e-05
4.905e-06
2.617e-06
3.633e-06
2.662e-05
3.53e-06
9.454e-08
7.631e-09
9.916e-10
6.719e-10
6.396e-10
7.849e-09
2.129e-07
4.68e-06
4.851e-05
0.0004519
0.0003254
0.0006588
0.0007631
0.0004253
0.0003052
0.0003951
0.001235
0.004057
0.005348
0.002251
0.0007969
0.0007218
0.0009357
0.001731
0.002478
0.003026
0.002389
0.002109
0.001703
0.001026
0.0005161
0.0003974
0.0007007
0.001872
0.003513
0.001863
0.0005093
0.0002052
5.09e-05
4.051e-05
2.202e-05
4.451e-05
0.0002188
0.004891
0.153
0.9158
0.9929
0.9997
1
1
1
1
1
1
1
1
1
1
1
1
1
1
1
1
1
1
1
1
1
1
1
1
1
1
1
1
1
1
1
1
1
1
1
1
1
1
1
1
1
1
1
1
1
1
1
1
1
1
1
1
1
1
1
1
1
1
1
1
1
1
1
1
1
1
1
1
1
1
1
1
1
1
1
1
1
1
1
1
1
1
1
1
1
1
1
1
1
1
1
1
1
1
1
1
1
1.142e-05
1.593e-05
5.132e-05
1.16e-05
1.522e-06
1.739e-06
4.563e-06
3.329e-05
5.189e-05
2.123e-05
4.027e-06
1.692e-06
2.613e-06
1.308e-05
4.364e-07
1.818e-08
3.719e-09
1.736e-09
2.904e-09
3.228e-09
2.515e-08
2.63e-07
6.001e-06
4.889e-05
0.000508
0.000402
0.0007865
0.001155
0.0009077
0.0008071
0.000794
0.001566
0.004154
0.004903
0.0024
0.001343
0.001731
0.001972
0.002397
0.002231
0.003004
0.00368
0.008079
0.008471
0.005179
0.00152
0.0004851
0.000288
0.0004628
0.000899
0.0005796
0.0002922
0.0002073
0.0001072
0.0001441
0.0005922
0.006773
0.1144
0.8957
0.9928
0.9996
1
1
1
1
1
1
1
1
1
1
1
1
1
1
1
1
1
1
1
1
1
1
1
1
1
1
1
1
1
1
1
1
1
1
1
1
1
1
1
1
1
1
1
1
1
1
1
1
1
1
1
1
1
1
1
1
1
1
1
1
1
1
1
1
1
1
1
1
1
1
1
1
1
1
1
1
1
1
1
1
1
1
1
1
1
1
1
1
1
1
1
1
1
1
1
1
1
1
1
8.435e-06
1.528e-05
3.244e-05
8.784e-06
9.997e-07
2.749e-06
1.395e-05
0.0001536
0.000153
4.894e-05
8.379e-06
2.36e-06
1.698e-06
4.151e-06
1.385e-07
1.215e-08
1.717e-08
4.266e-08
1.24e-07
1.384e-07
5.027e-07
1.977e-06
3.182e-05
0.0001938
0.001433
0.001028
0.001656
0.001826
0.001371
0.0008891
0.0009466
0.001764
0.004712
0.006325
0.003747
0.002558
0.003885
0.004799
0.004081
0.001907
0.001358
0.001194
0.002999
0.004498
0.003662
0.001357
0.000628
0.000129
6.211e-05
7.072e-05
4.899e-05
6.26e-05
0.0002038
0.0004497
0.001925
0.03929
0.7819
0.9841
0.9994
1
1
1
1
1
1
1
1
1
1
1
1
1
1
1
1
1
1
1
1
1
1
1
1
1
1
1
1
1
1
1
1
1
1
1
1
1
1
1
1
1
1
1
1
1
1
1
1
1
1
1
1
1
1
1
1
1
1
1
1
1
1
1
1
1
1
1
1
1
1
1
1
1
1
1
1
1
1
1
1
1
1
1
1
1
1
1
1
1
1
1
1
1
1
1
1
1
1
1
1
1
1.25e-05
1.574e-05
2.328e-05
9.088e-06
1.388e-06
9.994e-06
4.487e-05
0.0003127
0.0002662
0.0001224
2.68e-05
9.714e-06
4.688e-06
5.192e-06
3.358e-07
9.197e-08
4.789e-07
2.151e-06
6.342e-06
6.29e-06
1.448e-05
2.656e-05
0.0001149
0.0004251
0.00129
0.001131
0.001309
0.001583
0.001442
0.001018
0.001096
0.002231
0.006802
0.01082
0.006863
0.003892
0.003774
0.003006
0.001904
0.0007548
0.0003042
0.0002445
0.0004805
0.001275
0.002277
0.00177
0.001097
0.0001425
4.541e-05
2.21e-05
2.864e-05
5.606e-05
0.0007488
0.004181
0.1855
0.9466
0.9977
0.9999
1
1
1
1
1
1
1
1
1
1
1
1
1
1
1
1
1
1
1
1
1
1
1
1
1
1
1
1
1
1
1
1
1
1
1
1
1
1
1
1
1
1
1
1
1
1
1
1
1
1
1
1
1
1
1
1
1
1
1
1
1
1
1
1
1
1
1
1
1
1
1
1
1
1
1
1
1
1
1
1
1
1
1
1
1
1
1
1
1
1
1
1
1
1
1
1
1
1
1
1
1
1
2.871e-05
2.958e-05
4.098e-05
1.124e-05
2.678e-06
1.541e-05
3.777e-05
0.000231
0.0002454
0.000181
4.26e-05
3.546e-05
2.657e-05
2.384e-05
3.814e-06
1.828e-06
6.472e-06
1.662e-05
3.507e-05
7.447e-05
0.0001427
0.0001722
0.0003051
0.0003801
0.0003504
0.0004768
0.0009456
0.0007907
0.0006547
0.0004202
0.0003056
0.0005596
0.002571
0.006533
0.006019
0.003464
0.002496
0.002313
0.001759
0.0009621
0.0003091
0.0001552
0.000165
0.0002855
0.000511
0.0006578
0.0007639
0.0001467
0.0001093
5.6e-05
0.0001463
0.0004706
0.02834
0.7147
0.9881
0.9997
1
1
1
1
1
1
1
1
1
1
1
1
1
1
1
1
1
1
1
1
1
1
1
1
1
1
1
1
1
1
1
1
1
1
1
1
1
1
1
1
1
1
1
1
1
1
1
1
1
1
1
1
1
1
1
1
1
1
1
1
1
1
1
1
1
1
1
1
1
1
1
1
1
1
1
1
1
1
1
1
1
1
1
1
1
1
1
1
1
1
1
1
1
1
1
1
1
1
1
1
1
1
1
1
6.847e-05
5.877e-05
6.681e-05
1.355e-05
5.534e-06
1.547e-05
1.465e-05
8.676e-05
0.0001678
0.0001952
6.663e-05
0.000131
7.582e-05
8.789e-05
3.88e-05
4.168e-05
8.158e-05
9.455e-05
6.678e-05
0.0001307
0.0003231
0.0003288
0.0004586
0.0003235
0.000194
0.0003187
0.001054
0.0009919
0.0007428
0.0004953
0.0002415
0.0003074
0.0009202
0.003213
0.005564
0.005016
0.004363
0.003683
0.002809
0.001961
0.0007891
0.0002637
0.0001227
0.0001033
8.382e-05
0.0001378
0.0003323
0.0002442
0.0006478
0.00158
0.01467
0.3715
0.9733
0.999
1
1
1
1
1
1
1
1
1
1
1
1
1
1
1
1
1
1
1
1
1
1
1
1
1
1
1
1
1
0.9999
0.9993
0.9984
0.9977
0.9977
0.9985
0.9986
0.9985
0.9985
0.9979
0.9977
0.9985
0.9996
0.9999
1
1
1
1
1
1
1
1
1
1
1
1
1
1
1
1
1
1
1
1
1
1
1
1
1
1
1
1
1
1
1
1
1
1
1
1
1
1
1
1
1
1
1
1
1
1
1
1
1
1
1
1
1
1
1
1
1
1
1
1
1
1
1
0.0001343
9.819e-05
0.0001297
2.164e-05
1.283e-05
6.199e-06
2.599e-06
1.518e-05
8.694e-05
0.0002071
0.0002203
0.0004297
0.0002523
0.0003803
0.0002917
0.0003976
0.0002753
0.000196
6.839e-05
0.0001141
0.0002015
0.0002105
0.0004228
0.0002898
0.0004006
0.0007501
0.00246
0.002075
0.00158
0.000878
0.0003892
0.0002778
0.0004434
0.001733
0.004832
0.008817
0.01042
0.00665
0.00447
0.003373
0.001499
0.0005417
0.0001881
7.034e-05
4.255e-05
7.257e-05
0.0003329
0.001324
0.01091
0.1285
0.877
0.9929
0.9999
1
1
1
1
1
1
1
1
1
1
1
1
1
1
1
1
1
1
1
1
1
1
1
1
1
1
1
0.9997
0.997
0.9865
0.942
0.6623
0.1052
0.02267
0.01413
0.01504
0.01707
0.0161
0.008604
0.008802
0.02468
0.1707
0.7221
0.9533
0.9919
0.9984
0.9996
0.9999
1
1
1
1
1
1
1
1
1
1
1
1
1
1
1
1
1
1
1
1
1
1
1
1
1
1
1
1
1
1
1
1
1
1
1
1
1
1
1
1
1
1
1
1
1
1
1
1
1
1
1
1
1
1
1
1
1
1
1
9.756e-05
7.871e-05
0.0001063
1.939e-05
3.001e-05
6.552e-06
2.824e-06
9.078e-06
6.818e-05
0.000122
0.0002634
0.0004604
0.000365
0.0006457
0.0007103
0.001261
0.0008839
0.0004502
0.0002209
0.0001418
0.0001899
0.000185
0.000337
0.0002898
0.0003697
0.0004621
0.001344
0.001669
0.002235
0.002079
0.0008448
0.0002642
0.0001565
0.0003132
0.001266
0.004523
0.008293
0.004896
0.002927
0.002438
0.002076
0.001217
0.000489
0.0001471
9.555e-05
0.0003175
0.002943
0.05231
0.771
0.9817
0.9994
1
1
1
1
1
1
1
1
1
1
1
1
1
1
1
1
1
1
1
1
1
1
1
1
1
1
0.9996
0.9955
0.9524
0.7433
0.1414
0.02446
0.005649
0.0007958
8.518e-05
2.14e-05
1.986e-05
1.883e-05
2.534e-05
2.518e-05
1.626e-05
3.131e-05
0.0001332
0.0006189
0.002222
0.009684
0.02937
0.1388
0.6615
0.9123
0.9835
0.9983
0.9998
1
1
1
1
1
1
1
1
1
1
1
1
1
1
1
1
1
1
1
1
1
1
1
1
1
1
1
1
1
1
1
1
1
1
1
1
1
1
1
1
1
1
1
1
1
1
1
1
1
1
1
1
1
1
1
0.9998
7.65e-05
9.284e-05
0.0001858
2.832e-05
5.398e-05
5.501e-06
2.717e-06
5.138e-06
0.000107
0.0001353
0.000341
0.0003252
0.0003538
0.0005984
0.0005347
0.0007772
0.000941
0.0007692
0.0005448
0.000189
8.96e-05
5.433e-05
0.0001488
0.0003448
0.0006185
0.0004283
0.0007965
0.001165
0.00158
0.001528
0.0007508
0.0001888
8.623e-05
0.0001882
0.0008344
0.004009
0.008977
0.006666
0.003529
0.003209
0.003873
0.002481
0.00107
0.0004487
0.0004995
0.002296
0.06415
0.856
0.994
0.9998
1
1
1
1
1
1
1
1
1
1
1
1
1
1
1
1
1
1
1
1
1
1
1
1
0.9998
0.9971
0.9688
0.7951
0.1238
0.0109
0.001113
0.0001808
4.733e-05
1.455e-05
2.866e-06
6.509e-07
1.417e-07
1.88e-07
3.191e-07
4.292e-07
5.262e-07
5.271e-07
1.931e-06
1.183e-05
3.521e-05
5.831e-05
0.0001009
0.0001478
0.0003509
0.001822
0.007837
0.03398
0.2247
0.8202
0.9678
0.9969
0.9998
1
1
1
1
1
1
1
1
1
1
1
1
1
1
1
1
1
1
1
1
1
1
1
1
1
1
1
1
1
1
1
1
1
1
1
1
1
1
1
1
1
1
1
1
1
1
1
0.9999
0.9995
0.9977
0.9893
0.9648
0.9174
9.443e-05
0.0001419
0.0004124
5.124e-05
6.817e-05
5.59e-06
4.651e-06
1.068e-05
0.0001094
0.0001321
0.0003379
0.0003591
0.0006652
0.0008584
0.0003605
0.0004016
0.0008513
0.001687
0.001145
0.0001864
2.396e-05
1.113e-05
4.677e-05
0.0002474
0.0008441
0.0006657
0.0006938
0.001133
0.001559
0.001217
0.0006591
0.0001731
8.211e-05
0.0002035
0.0006829
0.003098
0.005556
0.003812
0.002224
0.002572
0.004483
0.004155
0.002892
0.00208
0.005261
0.1437
0.9394
0.9986
1
1
1
1
1
1
1
1
1
1
1
1
1
1
1
1
1
1
1
1
1
1
1
1
0.9998
0.9953
0.9109
0.1601
0.01044
0.001764
0.0002266
5.356e-05
1.518e-05
5.365e-06
1.402e-06
4.567e-07
8.448e-08
7.49e-08
4.729e-08
1.253e-07
2.274e-07
4.914e-07
6.012e-07
5.87e-07
1.228e-06
4.059e-06
5.367e-06
4.334e-06
3.356e-06
3.1e-06
4.865e-06
1.614e-05
4.579e-05
9.508e-05
0.0005479
0.005584
0.02442
0.2679
0.8728
0.9776
0.9968
0.9997
1
1
1
1
1
1
1
1
1
1
1
1
1
1
1
1
1
1
1
1
1
1
1
1
1
1
1
1
1
1
1
1
1
1
1
1
1
1
1
1
0.9999
0.9994
0.9958
0.9655
0.7549
0.1767
0.05398
0.0218
0.01323
0.003588
5.482e-05
8.683e-05
0.0004308
6.625e-05
7.653e-05
8.888e-06
7.356e-06
1.941e-05
0.0002178
0.0002007
0.0002562
0.0003233
0.001055
0.001453
0.0002961
0.0001438
0.0001638
0.0005473
0.0006149
0.000194
1.507e-05
7.335e-06
2.087e-05
0.0001954
0.0008847
0.0009066
0.0008238
0.001205
0.001049
0.0006213
0.0003372
0.0001844
0.000157
0.0006657
0.001677
0.003529
0.002754
0.001334
0.0004361
0.0003523
0.0006276
0.001265
0.003933
0.01988
0.415
0.9658
0.9992
1
1
1
1
1
1
1
1
1
1
1
1
1
1
1
1
1
1
1
1
1
1
1
0.9996
0.9927
0.8294
0.08261
0.004527
0.0004458
0.000114
4.385e-05
1.141e-05
6.984e-06
4.295e-06
3.132e-06
1.034e-06
8.18e-07
3.715e-07
5.159e-07
4.513e-07
1.394e-06
2.514e-06
5.552e-06
5.818e-06
4.552e-06
6.736e-06
7.867e-06
5.645e-06
3.726e-06
2.431e-06
1.385e-06
7.85e-07
9.481e-07
9.592e-07
9.958e-07
4.173e-06
2.289e-05
7.17e-05
0.000413
0.006438
0.0539
0.6304
0.9873
0.9998
1
1
1
1
1
1
1
1
1
1
1
1
1
1
1
1
1
1
1
1
1
1
1
1
1
1
1
1
1
1
1
1
1
1
1
0.9999
0.9991
0.9952
0.9697
0.8475
0.1898
0.02953
0.004539
0.001041
0.000216
6.422e-05
2.274e-05
1.034e-05
7.228e-07
1.838e-05
2.983e-05
0.0002626
6.423e-05