/*--------------------------------*- C++ -*----------------------------------*\
| =========                 |                                                 |
| \\      /  F ield         | OpenFOAM: The Open Source CFD Toolbox           |
|  \\    /   O peration     | Version:  5.x                                   |
|   \\  /    A nd           | Web:      www.OpenFOAM.org                      |
|    \\/     M anipulation  |                                                 |
\*---------------------------------------------------------------------------*/
FoamFile
{
    version     2.0;
    format      ascii;
    class       volVectorField;
    location    "200";
    object      U;
}
// * * * * * * * * * * * * * * * * * * * * * * * * * * * * * * * * * * * * * //

dimensions      [0 1 -1 0 0 0 0];

internalField   nonuniform List<vector> 
86400
(
(3.713e-09 -3.713e-09 0)
(1.114e-08 -3.714e-09 0)
(1.858e-08 -3.714e-09 0)
(2.601e-08 -3.714e-09 0)
(3.344e-08 -3.713e-09 0)
(4.087e-08 -3.712e-09 0)
(4.829e-08 -3.711e-09 0)
(5.571e-08 -3.709e-09 0)
(6.313e-08 -3.706e-09 0)
(7.054e-08 -3.703e-09 0)
(7.795e-08 -3.699e-09 0)
(8.535e-08 -3.693e-09 0)
(9.273e-08 -3.687e-09 0)
(1.001e-07 -3.681e-09 0)
(1.075e-07 -3.677e-09 0)
(1.148e-07 -3.671e-09 0)
(1.221e-07 -3.664e-09 0)
(1.295e-07 -3.653e-09 0)
(1.368e-07 -3.62e-09 0)
(1.44e-07 -3.628e-09 0)
(1.514e-07 -3.685e-09 0)
(1.587e-07 -3.732e-09 0)
(1.664e-07 -3.753e-09 0)
(1.74e-07 -3.762e-09 0)
(1.812e-07 -3.77e-09 0)
(1.895e-07 -3.664e-09 0)
(1.96e-07 -3.471e-09 0)
(2.031e-07 -3.438e-09 0)
(2.106e-07 -3.901e-09 0)
(2.188e-07 -4.418e-09 0)
(2.275e-07 -4.421e-09 0)
(2.362e-07 -4.384e-09 0)
(2.453e-07 -4.549e-09 0)
(2.546e-07 -4.727e-09 0)
(2.644e-07 -4.713e-09 0)
(2.745e-07 -4.217e-09 0)
(2.828e-07 -3.395e-09 0)
(2.923e-07 -3.363e-09 0)
(2.989e-07 -4.021e-09 0)
(3.128e-07 -5.882e-09 0)
(3.262e-07 -7.607e-09 0)
(3.438e-07 -7.538e-09 0)
(3.581e-07 -7.112e-09 0)
(3.703e-07 -7.654e-09 0)
(3.855e-07 -7.678e-09 0)
(3.994e-07 -7.294e-09 0)
(4.168e-07 -6.629e-09 0)
(4.269e-07 -4.009e-09 0)
(4.439e-07 -1.734e-09 0)
(4.373e-07 -3.409e-09 0)
(4.517e-07 -5.778e-09 0)
(4.679e-07 -5.183e-09 0)
(4.837e-07 -6.277e-09 0)
(5.136e-07 -1.594e-08 0)
(5.587e-07 -3.039e-08 0)
(6.29e-07 -4.13e-08 0)
(7.187e-07 -4.21e-08 0)
(7.78e-07 -2.709e-08 0)
(7.934e-07 -6.097e-09 0)
(8.001e-07 6.458e-09 0)
(7.626e-07 3.026e-09 0)
(7.872e-07 -7.883e-09 0)
(8.001e-07 -1.939e-08 0)
(8.36e-07 -3.479e-08 0)
(9.002e-07 -4.326e-08 0)
(1.011e-06 -3.142e-08 0)
(1.015e-06 -6.491e-09 0)
(1.048e-06 1.306e-08 0)
(9.602e-07 1.692e-08 0)
(9.417e-07 9.731e-10 0)
(9.654e-07 -2.69e-08 0)
(1.116e-06 -6.282e-08 0)
(1.249e-06 -6.558e-08 0)
(1.267e-06 -2.669e-08 0)
(1.267e-06 1.744e-08 0)
(1.216e-06 6.279e-08 0)
(1.064e-06 6.978e-08 0)
(9.97e-07 4.335e-08 0)
(9.899e-07 1.471e-08 0)
(9.435e-07 -8.875e-09 0)
(1e-06 -1.968e-08 0)
(1.006e-06 -7.347e-09 0)
(9.998e-07 6.616e-10 0)
(9.897e-07 4.11e-09 0)
(1.052e-06 7.693e-09 0)
(9.976e-07 1.769e-08 0)
(9.719e-07 2.671e-08 0)
(8.589e-07 2.702e-08 0)
(8.296e-07 2.299e-08 0)
(8.212e-07 1.261e-08 0)
(7.648e-07 -4.146e-09 0)
(8.728e-07 -2.804e-08 0)
(9.917e-07 -6.008e-08 0)
(1.277e-06 -9.098e-08 0)
(1.443e-06 -8.388e-08 0)
(1.632e-06 -4.576e-08 0)
(1.531e-06 -2.126e-09 0)
(1.538e-06 1.715e-08 0)
(1.504e-06 3.265e-08 0)
(1.416e-06 6.111e-08 0)
(1.3e-06 9.683e-08 0)
(1.065e-06 1.007e-07 0)
(8.961e-07 7.084e-08 0)
(7.726e-07 2.937e-08 0)
(7.317e-07 1.717e-09 0)
(7.367e-07 -6.117e-09 0)
(7.506e-07 -4.434e-09 0)
(7.98e-07 7.958e-09 0)
(7.376e-07 1.539e-08 0)
(6.948e-07 9.797e-09 0)
(6.708e-07 5.745e-09 0)
(6.648e-07 5.396e-09 0)
(6.57e-07 3.584e-09 0)
(6.529e-07 5.165e-09 0)
(6.377e-07 8.861e-09 0)
(6.159e-07 1.233e-08 0)
(5.904e-07 1.444e-08 0)
(5.633e-07 1.384e-08 0)
(5.423e-07 8.941e-09 0)
(5.308e-07 3.909e-09 0)
(5.252e-07 2.038e-09 0)
(5.217e-07 1.23e-09 0)
(5.184e-07 6.035e-10 0)
(5.15e-07 9.394e-10 0)
(5.114e-07 1.698e-09 0)
(5.075e-07 1.965e-09 0)
(5.029e-07 2.022e-09 0)
(4.989e-07 1.966e-09 0)
(4.949e-07 1.698e-09 0)
(4.914e-07 1.444e-09 0)
(4.88e-07 9.527e-10 0)
(4.871e-07 3.223e-10 0)
(4.862e-07 1.818e-10 0)
(4.851e-07 4.416e-10 0)
(4.842e-07 3.551e-10 0)
(4.838e-07 -1.391e-10 0)
(4.846e-07 -8.078e-10 0)
(4.875e-07 -1.306e-09 0)
(4.897e-07 -1.434e-09 0)
(4.925e-07 -1.801e-09 0)
(4.972e-07 -2.928e-09 0)
(5.045e-07 -4.221e-09 0)
(5.137e-07 -4.474e-09 0)
(5.215e-07 -3.16e-09 0)
(5.265e-07 -2.195e-09 0)
(5.315e-07 -2.997e-09 0)
(5.382e-07 -3.635e-09 0)
(5.451e-07 -3.662e-09 0)
(5.556e-07 -6.929e-09 0)
(5.7e-07 -7.417e-09 0)
(5.877e-07 -1.115e-08 0)
(6.177e-07 -1.742e-08 0)
(6.496e-07 -1.063e-08 0)
(6.384e-07 1.16e-08 0)
(7.147e-07 -2.838e-08 0)
(6.146e-07 1.896e-07 0)
(-6.732e-07 5.067e-07 0)
(3.601e-06 2.661e-06 0)
(6.688e-05 -2.534e-05 0)
(0.008368 -0.006074 0)
(3.715e-09 -1.114e-08 0)
(1.115e-08 -1.115e-08 0)
(1.859e-08 -1.115e-08 0)
(2.603e-08 -1.115e-08 0)
(3.346e-08 -1.115e-08 0)
(4.089e-08 -1.114e-08 0)
(4.832e-08 -1.114e-08 0)
(5.575e-08 -1.113e-08 0)
(6.317e-08 -1.113e-08 0)
(7.059e-08 -1.112e-08 0)
(7.8e-08 -1.11e-08 0)
(8.54e-08 -1.109e-08 0)
(9.28e-08 -1.107e-08 0)
(1.002e-07 -1.105e-08 0)
(1.076e-07 -1.104e-08 0)
(1.149e-07 -1.102e-08 0)
(1.222e-07 -1.1e-08 0)
(1.296e-07 -1.099e-08 0)
(1.37e-07 -1.096e-08 0)
(1.446e-07 -1.107e-08 0)
(1.523e-07 -1.125e-08 0)
(1.598e-07 -1.135e-08 0)
(1.677e-07 -1.14e-08 0)
(1.756e-07 -1.151e-08 0)
(1.833e-07 -1.144e-08 0)
(1.913e-07 -1.097e-08 0)
(1.983e-07 -1.039e-08 0)
(2.054e-07 -1.015e-08 0)
(2.139e-07 -1.14e-08 0)
(2.208e-07 -1.301e-08 0)
(2.298e-07 -1.312e-08 0)
(2.384e-07 -1.302e-08 0)
(2.482e-07 -1.409e-08 0)
(2.588e-07 -1.566e-08 0)
(2.723e-07 -1.713e-08 0)
(2.876e-07 -1.761e-08 0)
(3.048e-07 -1.736e-08 0)
(3.274e-07 -1.914e-08 0)
(3.459e-07 -2.132e-08 0)
(3.717e-07 -2.307e-08 0)
(3.79e-07 -2.22e-08 0)
(3.86e-07 -1.972e-08 0)
(3.941e-07 -1.809e-08 0)
(3.98e-07 -1.938e-08 0)
(4.045e-07 -2.134e-08 0)
(4.202e-07 -2.174e-08 0)
(4.369e-07 -2.019e-08 0)
(4.506e-07 -1.588e-08 0)
(4.841e-07 -1.3e-08 0)
(5.025e-07 -2.261e-08 0)
(5.375e-07 -3.868e-08 0)
(5.891e-07 -4.703e-08 0)
(6.478e-07 -5.291e-08 0)
(7.183e-07 -6.221e-08 0)
(6.967e-07 -6.392e-08 0)
(6.631e-07 -6.235e-08 0)
(6.289e-07 -5.242e-08 0)
(5.981e-07 -3.077e-08 0)
(5.821e-07 -9.56e-09 0)
(6.029e-07 3.877e-09 0)
(6.033e-07 1.05e-09 0)
(6.14e-07 -1.412e-08 0)
(6.114e-07 -3.238e-08 0)
(6.145e-07 -5.773e-08 0)
(6.133e-07 -7.443e-08 0)
(6.65e-07 -6.8e-08 0)
(6.961e-07 -4.041e-08 0)
(7.722e-07 -1.254e-08 0)
(7.879e-07 -2.005e-10 0)
(8.316e-07 -2.839e-08 0)
(8.849e-07 -8.891e-08 0)
(1.012e-06 -1.345e-07 0)
(9.282e-07 -7.876e-08 0)
(8.71e-07 -8.5e-09 0)
(8.154e-07 4.002e-08 0)
(8.245e-07 8.59e-08 0)
(8.381e-07 9.696e-08 0)
(9.196e-07 5.601e-08 0)
(1.014e-06 1.249e-08 0)
(1.014e-06 -2.526e-08 0)
(1.046e-06 -5.155e-08 0)
(1.053e-06 -3.989e-08 0)
(1.148e-06 -3.066e-08 0)
(1.191e-06 -1.945e-08 0)
(1.399e-06 -1.19e-08 0)
(1.44e-06 2.12e-08 0)
(1.531e-06 6.809e-08 0)
(1.391e-06 5.817e-08 0)
(1.463e-06 9.096e-09 0)
(1.65e-06 -6.478e-08 0)
(1.756e-06 -1.788e-07 0)
(2.073e-06 -3.204e-07 0)
(2.235e-06 -3.39e-07 0)
(2.198e-06 -2.077e-07 0)
(1.997e-06 -5.986e-08 0)
(1.806e-06 6.831e-08 0)
(1.519e-06 1.185e-07 0)
(1.406e-06 1.066e-07 0)
(1.332e-06 1.072e-07 0)
(1.238e-06 1.409e-07 0)
(1.216e-06 1.933e-07 0)
(1.169e-06 2.265e-07 0)
(1.156e-06 2.013e-07 0)
(1.074e-06 1.125e-07 0)
(9.459e-07 3.323e-08 0)
(8.997e-07 -2.075e-09 0)
(8.988e-07 -3.66e-09 0)
(9.135e-07 3.024e-08 0)
(8.56e-07 5.314e-08 0)
(7.855e-07 4.759e-08 0)
(7.042e-07 3.552e-08 0)
(6.79e-07 2.666e-08 0)
(6.517e-07 1.768e-08 0)
(6.325e-07 1.955e-08 0)
(6.123e-07 2.478e-08 0)
(5.969e-07 2.905e-08 0)
(5.859e-07 2.981e-08 0)
(5.853e-07 2.493e-08 0)
(5.99e-07 1.354e-08 0)
(6.017e-07 5.86e-09 0)
(5.987e-07 7.819e-09 0)
(5.902e-07 1.048e-08 0)
(5.732e-07 1.053e-08 0)
(5.552e-07 1.016e-08 0)
(5.43e-07 9.515e-09 0)
(5.351e-07 8.448e-09 0)
(5.269e-07 7.545e-09 0)
(5.224e-07 7.196e-09 0)
(5.158e-07 7.222e-09 0)
(5.084e-07 7.008e-09 0)
(5.01e-07 5.349e-09 0)
(4.967e-07 3.137e-09 0)
(4.918e-07 2.168e-09 0)
(4.891e-07 2.308e-09 0)
(4.87e-07 1.843e-09 0)
(4.853e-07 2.466e-11 0)
(4.861e-07 -2.33e-09 0)
(4.889e-07 -3.685e-09 0)
(4.903e-07 -3.598e-09 0)
(4.914e-07 -4.609e-09 0)
(4.952e-07 -8.673e-09 0)
(5.033e-07 -1.358e-08 0)
(5.15e-07 -1.469e-08 0)
(5.241e-07 -9.216e-09 0)
(5.27e-07 -5.224e-09 0)
(5.304e-07 -8.986e-09 0)
(5.379e-07 -1.105e-08 0)
(5.422e-07 -8.74e-09 0)
(5.522e-07 -2.228e-08 0)
(5.661e-07 -2.013e-08 0)
(5.781e-07 -3.351e-08 0)
(6.187e-07 -6.094e-08 0)
(6.791e-07 -2.901e-08 0)
(6.212e-07 3.755e-08 0)
(8.958e-07 -5.913e-07 0)
(1.26e-06 1.306e-06 0)
(1.451e-05 2.32e-06 0)
(0.002026 -0.0005618 0)
(0.00912 -0.007184 0)
(0.0167 -0.01392 0)
(3.715e-09 -1.858e-08 0)
(1.115e-08 -1.859e-08 0)
(1.859e-08 -1.859e-08 0)
(2.603e-08 -1.858e-08 0)
(3.346e-08 -1.858e-08 0)
(4.09e-08 -1.858e-08 0)
(4.833e-08 -1.857e-08 0)
(5.576e-08 -1.856e-08 0)
(6.318e-08 -1.855e-08 0)
(7.06e-08 -1.853e-08 0)
(7.802e-08 -1.851e-08 0)
(8.543e-08 -1.849e-08 0)
(9.283e-08 -1.846e-08 0)
(1.002e-07 -1.844e-08 0)
(1.076e-07 -1.84e-08 0)
(1.149e-07 -1.838e-08 0)
(1.223e-07 -1.84e-08 0)
(1.298e-07 -1.848e-08 0)
(1.373e-07 -1.861e-08 0)
(1.454e-07 -1.883e-08 0)
(1.526e-07 -1.895e-08 0)
(1.601e-07 -1.92e-08 0)
(1.681e-07 -1.958e-08 0)
(1.77e-07 -1.991e-08 0)
(1.845e-07 -1.988e-08 0)
(1.941e-07 -1.971e-08 0)
(2.032e-07 -1.931e-08 0)
(2.126e-07 -1.931e-08 0)
(2.251e-07 -2.059e-08 0)
(2.315e-07 -2.212e-08 0)
(2.387e-07 -2.244e-08 0)
(2.497e-07 -2.266e-08 0)
(2.602e-07 -2.428e-08 0)
(2.692e-07 -2.689e-08 0)
(2.794e-07 -2.981e-08 0)
(2.891e-07 -3.183e-08 0)
(3.004e-07 -3.289e-08 0)
(3.178e-07 -3.535e-08 0)
(3.222e-07 -3.56e-08 0)
(3.346e-07 -3.31e-08 0)
(3.375e-07 -2.877e-08 0)
(3.498e-07 -2.616e-08 0)
(3.6e-07 -2.509e-08 0)
(3.766e-07 -2.995e-08 0)
(3.916e-07 -3.764e-08 0)
(4.159e-07 -4.49e-08 0)
(4.535e-07 -5.182e-08 0)
(4.924e-07 -5.567e-08 0)
(5.512e-07 -5.535e-08 0)
(5.991e-07 -5.88e-08 0)
(5.816e-07 -6.466e-08 0)
(5.603e-07 -6.59e-08 0)
(5.373e-07 -6.321e-08 0)
(5.268e-07 -5.262e-08 0)
(5.018e-07 -3.841e-08 0)
(5.105e-07 -3.423e-08 0)
(5.083e-07 -2.946e-08 0)
(5.039e-07 -1.992e-08 0)
(5.031e-07 -1.191e-08 0)
(5.149e-07 -6.509e-09 0)
(5.227e-07 -8.118e-09 0)
(5.339e-07 -2.02e-08 0)
(5.422e-07 -4.089e-08 0)
(5.651e-07 -7.054e-08 0)
(5.667e-07 -9.142e-08 0)
(5.833e-07 -9.186e-08 0)
(5.951e-07 -7.592e-08 0)
(6.389e-07 -5.722e-08 0)
(6.53e-07 -4.468e-08 0)
(6.928e-07 -6.227e-08 0)
(7.147e-07 -1.037e-07 0)
(7.232e-07 -1.049e-07 0)
(6.697e-07 -5.186e-08 0)
(7.121e-07 -1.507e-08 0)
(7.571e-07 8.45e-09 0)
(8.422e-07 2.465e-08 0)
(9.965e-07 -6.772e-09 0)
(1.302e-06 -9.587e-08 0)
(1.528e-06 -1.175e-07 0)
(1.65e-06 -9.328e-08 0)
(1.672e-06 -9.532e-08 0)
(1.557e-06 -1.083e-07 0)
(1.722e-06 -1.864e-07 0)
(1.824e-06 -2.827e-07 0)
(2.457e-06 -3.556e-07 0)
(2.598e-06 -1.882e-07 0)
(2.824e-06 1.089e-07 0)
(2.621e-06 2.929e-07 0)
(2.242e-06 2.341e-07 0)
(1.83e-06 4.827e-08 0)
(1.443e-06 -1.432e-07 0)
(1.284e-06 -2.451e-07 0)
(1.123e-06 -1.898e-07 0)
(1.191e-06 -7.554e-08 0)
(1.198e-06 4.041e-08 0)
(1.228e-06 1.378e-07 0)
(1.23e-06 1.8e-07 0)
(1.264e-06 1.655e-07 0)
(1.205e-06 1.488e-07 0)
(1.165e-06 1.513e-07 0)
(1.211e-06 1.588e-07 0)
(1.283e-06 1.96e-07 0)
(1.423e-06 2.211e-07 0)
(1.428e-06 1.68e-07 0)
(1.324e-06 9.638e-08 0)
(1.265e-06 4.526e-08 0)
(1.163e-06 3.686e-08 0)
(1.162e-06 9.802e-08 0)
(1.057e-06 1.487e-07 0)
(9.208e-07 1.413e-07 0)
(8.07e-07 1.058e-07 0)
(7.735e-07 8.076e-08 0)
(7.033e-07 5.518e-08 0)
(6.71e-07 4.813e-08 0)
(6.415e-07 4.544e-08 0)
(6.268e-07 4.381e-08 0)
(6.129e-07 3.904e-08 0)
(6.084e-07 2.814e-08 0)
(6.038e-07 1.358e-08 0)
(5.802e-07 8.115e-09 0)
(5.686e-07 1.456e-08 0)
(5.652e-07 2.144e-08 0)
(5.53e-07 2.327e-08 0)
(5.41e-07 2.222e-08 0)
(5.31e-07 1.926e-08 0)
(5.234e-07 1.589e-08 0)
(5.159e-07 1.339e-08 0)
(5.113e-07 1.271e-08 0)
(5.049e-07 1.342e-08 0)
(4.992e-07 1.354e-08 0)
(4.942e-07 1.075e-08 0)
(4.908e-07 6.588e-09 0)
(4.877e-07 4.534e-09 0)
(4.854e-07 4.949e-09 0)
(4.825e-07 4.343e-09 0)
(4.803e-07 3.45e-10 0)
(4.823e-07 -4.979e-09 0)
(4.878e-07 -7.252e-09 0)
(4.905e-07 -4.571e-09 0)
(4.883e-07 -4.56e-09 0)
(4.888e-07 -1.371e-08 0)
(4.989e-07 -2.635e-08 0)
(5.183e-07 -3.016e-08 0)
(5.313e-07 -1.402e-08 0)
(5.271e-07 -2.27e-09 0)
(5.26e-07 -1.581e-08 0)
(5.388e-07 -2.083e-08 0)
(5.342e-07 -3.819e-09 0)
(5.446e-07 -4.73e-08 0)
(5.591e-07 -1.836e-08 0)
(5.473e-07 -3.681e-08 0)
(6.227e-07 -1.769e-07 0)
(7.495e-07 -1.912e-07 0)
(9.034e-08 5.063e-07 0)
(3.334e-06 1.758e-06 0)
(0.0001244 -2.227e-05 0)
(0.004771 -0.002682 0)
(0.01135 -0.008167 0)
(0.01753 -0.01395 0)
(0.02292 -0.0197 0)
(3.716e-09 -2.601e-08 0)
(1.115e-08 -2.603e-08 0)
(1.859e-08 -2.602e-08 0)
(2.603e-08 -2.602e-08 0)
(3.347e-08 -2.602e-08 0)
(4.091e-08 -2.601e-08 0)
(4.834e-08 -2.6e-08 0)
(5.577e-08 -2.599e-08 0)
(6.32e-08 -2.597e-08 0)
(7.062e-08 -2.595e-08 0)
(7.804e-08 -2.593e-08 0)
(8.545e-08 -2.589e-08 0)
(9.285e-08 -2.586e-08 0)
(1.002e-07 -2.581e-08 0)
(1.076e-07 -2.577e-08 0)
(1.149e-07 -2.573e-08 0)
(1.222e-07 -2.577e-08 0)
(1.295e-07 -2.585e-08 0)
(1.366e-07 -2.595e-08 0)
(1.437e-07 -2.601e-08 0)
(1.507e-07 -2.613e-08 0)
(1.578e-07 -2.655e-08 0)
(1.65e-07 -2.714e-08 0)
(1.724e-07 -2.75e-08 0)
(1.797e-07 -2.773e-08 0)
(1.873e-07 -2.774e-08 0)
(1.948e-07 -2.716e-08 0)
(2.013e-07 -2.647e-08 0)
(2.103e-07 -2.785e-08 0)
(2.217e-07 -3.135e-08 0)
(2.316e-07 -3.332e-08 0)
(2.462e-07 -3.455e-08 0)
(2.606e-07 -3.641e-08 0)
(2.732e-07 -3.834e-08 0)
(2.832e-07 -4.064e-08 0)
(2.923e-07 -4.325e-08 0)
(3.002e-07 -4.496e-08 0)
(3.18e-07 -4.538e-08 0)
(3.154e-07 -4.181e-08 0)
(3.256e-07 -4.076e-08 0)
(3.34e-07 -4.066e-08 0)
(3.489e-07 -4.213e-08 0)
(3.689e-07 -4.468e-08 0)
(3.941e-07 -4.921e-08 0)
(3.918e-07 -5.428e-08 0)
(4.029e-07 -6.447e-08 0)
(4.051e-07 -7.241e-08 0)
(4.078e-07 -7.678e-08 0)
(4.127e-07 -7.328e-08 0)
(4.347e-07 -6.226e-08 0)
(4.266e-07 -4.94e-08 0)
(4.261e-07 -4.747e-08 0)
(4.318e-07 -4.932e-08 0)
(4.387e-07 -4.666e-08 0)
(4.396e-07 -4.192e-08 0)
(4.513e-07 -3.968e-08 0)
(4.571e-07 -3.378e-08 0)
(4.664e-07 -2.598e-08 0)
(4.767e-07 -1.908e-08 0)
(4.88e-07 -1.382e-08 0)
(4.928e-07 -1.44e-08 0)
(4.994e-07 -2.546e-08 0)
(5.08e-07 -4.78e-08 0)
(5.233e-07 -7.844e-08 0)
(5.32e-07 -9.911e-08 0)
(5.517e-07 -1.011e-07 0)
(5.559e-07 -9.247e-08 0)
(5.779e-07 -8.577e-08 0)
(5.923e-07 -8.286e-08 0)
(6.374e-07 -9.828e-08 0)
(7.106e-07 -1.317e-07 0)
(7.417e-07 -1.203e-07 0)
(7.198e-07 -7.331e-08 0)
(7.773e-07 -6.131e-08 0)
(7.809e-07 -6.68e-08 0)
(8.866e-07 -1.064e-07 0)
(1.082e-06 -2.17e-07 0)
(1.342e-06 -3.214e-07 0)
(1.29e-06 -2.32e-07 0)
(1.41e-06 -1.38e-07 0)
(1.343e-06 -6.864e-08 0)
(1.274e-06 -1.101e-07 0)
(1.323e-06 -2.717e-07 0)
(1.309e-06 -4.251e-07 0)
(1.401e-06 -4.257e-07 0)
(1.391e-06 -2.312e-07 0)
(1.47e-06 7.43e-08 0)
(1.398e-06 3.457e-07 0)
(1.315e-06 3.947e-07 0)
(1.367e-06 1.886e-07 0)
(1.579e-06 -1.102e-07 0)
(1.851e-06 -3.091e-07 0)
(1.708e-06 -2.644e-07 0)
(1.802e-06 -9.278e-08 0)
(1.631e-06 9.245e-08 0)
(1.531e-06 1.609e-07 0)
(1.521e-06 1.72e-07 0)
(1.628e-06 2.087e-07 0)
(1.52e-06 2.088e-07 0)
(1.525e-06 1.898e-07 0)
(1.507e-06 1.417e-07 0)
(1.438e-06 1.222e-07 0)
(1.667e-06 1.877e-07 0)
(1.694e-06 2.651e-07 0)
(1.451e-06 2.73e-07 0)
(1.317e-06 2.336e-07 0)
(1.05e-06 1.617e-07 0)
(9.928e-07 1.711e-07 0)
(9.203e-07 2.192e-07 0)
(8.874e-07 2.21e-07 0)
(7.676e-07 1.631e-07 0)
(7.585e-07 1.321e-07 0)
(6.806e-07 9.484e-08 0)
(6.506e-07 7.554e-08 0)
(6.231e-07 6.013e-08 0)
(6.184e-07 4.705e-08 0)
(6.259e-07 3.463e-08 0)
(6.569e-07 2.691e-08 0)
(6.709e-07 2.742e-08 0)
(6.319e-07 2.978e-08 0)
(6.056e-07 3.069e-08 0)
(6.032e-07 3.501e-08 0)
(5.867e-07 3.839e-08 0)
(5.688e-07 3.767e-08 0)
(5.528e-07 3.27e-08 0)
(5.416e-07 2.611e-08 0)
(5.313e-07 2.072e-08 0)
(5.268e-07 1.89e-08 0)
(5.2e-07 2.009e-08 0)
(5.132e-07 2.052e-08 0)
(5.078e-07 1.654e-08 0)
(5.027e-07 1.061e-08 0)
(4.956e-07 7.984e-09 0)
(4.899e-07 1.029e-08 0)
(4.818e-07 1.056e-08 0)
(4.743e-07 2.236e-09 0)
(4.761e-07 -9.778e-09 0)
(4.856e-07 -1.458e-08 0)
(4.906e-07 -3.855e-09 0)
(4.817e-07 2.568e-09 0)
(4.732e-07 -1.622e-08 0)
(4.868e-07 -4.753e-08 0)
(5.273e-07 -6.164e-08 0)
(5.519e-07 -1.538e-08 0)
(5.252e-07 1.903e-08 0)
(5.118e-07 -2.901e-08 0)
(5.499e-07 -3.911e-08 0)
(5.157e-07 4.496e-08 0)
(5.378e-07 -1.077e-07 0)
(5.771e-07 -8.861e-09 0)
(4.231e-07 -1.172e-07 0)
(4.976e-07 -7.582e-08 0)
(2.454e-06 1.928e-06 0)
(3.763e-05 2.701e-06 0)
(0.002232 -0.0005917 0)
(0.008218 -0.005154 0)
(0.01388 -0.009663 0)
(0.01926 -0.01407 0)
(0.02394 -0.01876 0)
(0.02777 -0.02361 0)
(3.716e-09 -3.345e-08 0)
(1.116e-08 -3.347e-08 0)
(1.86e-08 -3.346e-08 0)
(2.604e-08 -3.346e-08 0)
(3.348e-08 -3.345e-08 0)
(4.091e-08 -3.345e-08 0)
(4.835e-08 -3.343e-08 0)
(5.579e-08 -3.342e-08 0)
(6.322e-08 -3.34e-08 0)
(7.065e-08 -3.337e-08 0)
(7.807e-08 -3.334e-08 0)
(8.549e-08 -3.33e-08 0)
(9.289e-08 -3.325e-08 0)
(1.003e-07 -3.319e-08 0)
(1.076e-07 -3.312e-08 0)
(1.15e-07 -3.305e-08 0)
(1.223e-07 -3.304e-08 0)
(1.294e-07 -3.3e-08 0)
(1.365e-07 -3.295e-08 0)
(1.434e-07 -3.299e-08 0)
(1.503e-07 -3.318e-08 0)
(1.572e-07 -3.36e-08 0)
(1.642e-07 -3.435e-08 0)
(1.715e-07 -3.503e-08 0)
(1.791e-07 -3.557e-08 0)
(1.872e-07 -3.614e-08 0)
(1.962e-07 -3.674e-08 0)
(2.073e-07 -3.799e-08 0)
(2.259e-07 -4.13e-08 0)
(2.346e-07 -4.281e-08 0)
(2.307e-07 -4.217e-08 0)
(2.396e-07 -4.448e-08 0)
(2.461e-07 -4.616e-08 0)
(2.543e-07 -4.732e-08 0)
(2.633e-07 -4.89e-08 0)
(2.723e-07 -5.128e-08 0)
(2.784e-07 -5.316e-08 0)
(2.913e-07 -5.298e-08 0)
(3e-07 -5.134e-08 0)
(3.202e-07 -5.286e-08 0)
(3.261e-07 -5.216e-08 0)
(3.334e-07 -5.335e-08 0)
(3.346e-07 -5.442e-08 0)
(3.419e-07 -5.51e-08 0)
(3.495e-07 -5.865e-08 0)
(3.578e-07 -6.632e-08 0)
(3.625e-07 -7.307e-08 0)
(3.652e-07 -7.811e-08 0)
(3.665e-07 -7.85e-08 0)
(3.765e-07 -7.119e-08 0)
(3.888e-07 -6.182e-08 0)
(4.044e-07 -5.979e-08 0)
(4.137e-07 -5.947e-08 0)
(4.268e-07 -5.695e-08 0)
(4.348e-07 -5.33e-08 0)
(4.498e-07 -5.095e-08 0)
(4.612e-07 -4.625e-08 0)
(4.739e-07 -4.123e-08 0)
(4.92e-07 -3.603e-08 0)
(5.157e-07 -2.917e-08 0)
(5.382e-07 -3.135e-08 0)
(5.735e-07 -5.467e-08 0)
(6.325e-07 -8.559e-08 0)
(6.721e-07 -1.062e-07 0)
(6.202e-07 -1.05e-07 0)
(5.892e-07 -9.381e-08 0)
(5.639e-07 -8.807e-08 0)
(5.56e-07 -9.689e-08 0)
(5.57e-07 -1.069e-07 0)
(5.73e-07 -1.198e-07 0)
(6.233e-07 -1.484e-07 0)
(6.419e-07 -1.369e-07 0)
(6.964e-07 -1.157e-07 0)
(7.995e-07 -1.299e-07 0)
(8.672e-07 -1.755e-07 0)
(9.63e-07 -2.721e-07 0)
(1.137e-06 -3.755e-07 0)
(1.041e-06 -3.125e-07 0)
(8.879e-07 -2.199e-07 0)
(9.889e-07 -1.549e-07 0)
(9.355e-07 -7.295e-09 0)
(8.426e-07 -5e-08 0)
(8.659e-07 -2.358e-07 0)
(1.017e-06 -4.235e-07 0)
(1.355e-06 -5.183e-07 0)
(1.765e-06 -4.136e-07 0)
(2.055e-06 1.005e-07 0)
(1.705e-06 5.958e-07 0)
(1.253e-06 5.626e-07 0)
(1.11e-06 8.279e-08 0)
(1.327e-06 -3.609e-07 0)
(1.982e-06 -7.114e-07 0)
(1.946e-06 -4.371e-07 0)
(1.967e-06 1.392e-07 0)
(1.574e-06 4.421e-07 0)
(1.458e-06 3.896e-07 0)
(1.168e-06 2.319e-07 0)
(1.207e-06 2.054e-07 0)
(1.18e-06 2.716e-07 0)
(1.073e-06 3.073e-07 0)
(8.768e-07 2.332e-07 0)
(7.127e-07 1.443e-07 0)
(6.544e-07 1.213e-07 0)
(6.78e-07 1.621e-07 0)
(7.349e-07 2.094e-07 0)
(8.887e-07 2.569e-07 0)
(9.358e-07 2.66e-07 0)
(8.918e-07 2.524e-07 0)
(8.276e-07 2.472e-07 0)
(9.343e-07 2.76e-07 0)
(8.342e-07 2.312e-07 0)
(8.683e-07 2.164e-07 0)
(7.581e-07 1.712e-07 0)
(7.089e-07 1.322e-07 0)
(6.505e-07 9.478e-08 0)
(6.229e-07 6.438e-08 0)
(5.891e-07 4.003e-08 0)
(5.694e-07 3.061e-08 0)
(5.44e-07 3.533e-08 0)
(5.385e-07 4.085e-08 0)
(5.332e-07 3.923e-08 0)
(5.334e-07 4.13e-08 0)
(5.272e-07 4.702e-08 0)
(5.193e-07 4.878e-08 0)
(5.103e-07 4.278e-08 0)
(5.05e-07 3.244e-08 0)
(5.033e-07 2.344e-08 0)
(5.054e-07 2.076e-08 0)
(5.036e-07 2.528e-08 0)
(4.958e-07 2.891e-08 0)
(4.877e-07 2.313e-08 0)
(4.839e-07 1.285e-08 0)
(4.865e-07 8.492e-09 0)
(4.866e-07 1.783e-08 0)
(4.727e-07 2.396e-08 0)
(4.584e-07 7.405e-09 0)
(4.627e-07 -2.046e-08 0)
(4.893e-07 -3.395e-08 0)
(5.041e-07 1.369e-10 0)
(4.747e-07 2.947e-08 0)
(4.383e-07 -9.689e-09 0)
(4.534e-07 -8.683e-08 0)
(5.504e-07 -1.371e-07 0)
(6.119e-07 -2.054e-09 0)
(5.135e-07 1.086e-07 0)
(4.679e-07 -6.243e-08 0)
(6.131e-07 -1.57e-07 0)
(4.664e-07 1.894e-07 0)
(4.99e-07 -4.139e-07 0)
(6.375e-07 5.171e-07 0)
(2.443e-06 2.647e-06 0)
(4.78e-05 6.958e-06 0)
(0.001364 -0.0002597 0)
(0.006497 -0.003048 0)
(0.01194 -0.007074 0)
(0.0171 -0.01095 0)
(0.02162 -0.01459 0)
(0.02566 -0.01835 0)
(0.02906 -0.02231 0)
(0.03174 -0.02634 0)
(3.717e-09 -4.088e-08 0)
(1.116e-08 -4.091e-08 0)
(1.86e-08 -4.091e-08 0)
(2.604e-08 -4.09e-08 0)
(3.348e-08 -4.089e-08 0)
(4.093e-08 -4.088e-08 0)
(4.837e-08 -4.087e-08 0)
(5.58e-08 -4.085e-08 0)
(6.324e-08 -4.083e-08 0)
(7.068e-08 -4.08e-08 0)
(7.811e-08 -4.077e-08 0)
(8.554e-08 -4.072e-08 0)
(9.295e-08 -4.065e-08 0)
(1.004e-07 -4.058e-08 0)
(1.077e-07 -4.048e-08 0)
(1.151e-07 -4.037e-08 0)
(1.224e-07 -4.026e-08 0)
(1.295e-07 -4.008e-08 0)
(1.365e-07 -3.99e-08 0)
(1.433e-07 -3.983e-08 0)
(1.5e-07 -4.001e-08 0)
(1.566e-07 -4.038e-08 0)
(1.635e-07 -4.149e-08 0)
(1.707e-07 -4.247e-08 0)
(1.781e-07 -4.321e-08 0)
(1.854e-07 -4.417e-08 0)
(1.924e-07 -4.558e-08 0)
(1.98e-07 -4.713e-08 0)
(2.07e-07 -4.791e-08 0)
(2.136e-07 -4.634e-08 0)
(2.19e-07 -4.679e-08 0)
(2.279e-07 -5.052e-08 0)
(2.355e-07 -5.345e-08 0)
(2.437e-07 -5.585e-08 0)
(2.534e-07 -5.814e-08 0)
(2.632e-07 -6.016e-08 0)
(2.699e-07 -6.158e-08 0)
(2.777e-07 -6.212e-08 0)
(2.853e-07 -6.2e-08 0)
(2.935e-07 -6.087e-08 0)
(3.014e-07 -5.882e-08 0)
(3.118e-07 -5.914e-08 0)
(3.22e-07 -6.146e-08 0)
(3.322e-07 -6.488e-08 0)
(3.418e-07 -6.9e-08 0)
(3.498e-07 -7.43e-08 0)
(3.559e-07 -7.902e-08 0)
(3.602e-07 -8.247e-08 0)
(3.632e-07 -8.347e-08 0)
(3.671e-07 -7.998e-08 0)
(3.743e-07 -7.421e-08 0)
(3.842e-07 -7.057e-08 0)
(3.945e-07 -6.873e-08 0)
(4.05e-07 -6.651e-08 0)
(4.165e-07 -6.427e-08 0)
(4.289e-07 -6.234e-08 0)
(4.43e-07 -5.99e-08 0)
(4.602e-07 -5.904e-08 0)
(4.797e-07 -5.926e-08 0)
(5.018e-07 -5.752e-08 0)
(5.458e-07 -6.152e-08 0)
(5.769e-07 -8.141e-08 0)
(5.479e-07 -8.717e-08 0)
(5.346e-07 -7.71e-08 0)
(5.185e-07 -7.263e-08 0)
(5.163e-07 -6.813e-08 0)
(5.326e-07 -7.313e-08 0)
(5.64e-07 -1.029e-07 0)
(5.897e-07 -1.316e-07 0)
(6.426e-07 -1.57e-07 0)
(7.665e-07 -2.094e-07 0)
(7.46e-07 -2.074e-07 0)
(7.755e-07 -1.873e-07 0)
(7.956e-07 -1.819e-07 0)
(7.286e-07 -1.987e-07 0)
(6.96e-07 -2.523e-07 0)
(6.009e-07 -2.23e-07 0)
(5.25e-07 -1.828e-07 0)
(5.088e-07 -1.994e-07 0)
(5.943e-07 -2.007e-07 0)
(6.465e-07 -3.071e-08 0)
(7.682e-07 -1.161e-07 0)
(1.006e-06 -7.002e-07 0)
(1.604e-06 -1.456e-06 0)
(2.336e-06 -1.685e-06 0)
(3.001e-06 -1.489e-06 0)
(3.123e-06 4.319e-07 0)
(2.391e-06 2.007e-06 0)
(1.571e-06 1.499e-06 0)
(1.774e-06 -1.195e-07 0)
(1.908e-06 -7.73e-07 0)
(1.175e-06 -4.527e-07 0)
(7.888e-07 -1.732e-07 0)
(8.148e-07 2.507e-07 0)
(6.751e-07 5.28e-07 0)
(5.323e-07 3.648e-07 0)
(5.329e-07 1.983e-07 0)
(6.128e-07 1.169e-07 0)
(6.761e-07 2.262e-07 0)
(6.353e-07 3.5e-07 0)
(5.658e-07 3.043e-07 0)
(5.386e-07 2.132e-07 0)
(5.462e-07 1.468e-07 0)
(5.793e-07 1.553e-07 0)
(5.937e-07 1.805e-07 0)
(6.074e-07 1.839e-07 0)
(6.238e-07 2.062e-07 0)
(6.436e-07 2.387e-07 0)
(6.506e-07 2.404e-07 0)
(6.519e-07 2.359e-07 0)
(6.229e-07 2.193e-07 0)
(6.255e-07 2.118e-07 0)
(6.046e-07 1.939e-07 0)
(5.92e-07 1.615e-07 0)
(5.672e-07 1.227e-07 0)
(5.485e-07 8.781e-08 0)
(5.301e-07 6.205e-08 0)
(5.201e-07 4.824e-08 0)
(5.145e-07 4.326e-08 0)
(5.174e-07 4.1e-08 0)
(5.192e-07 3.994e-08 0)
(5.211e-07 4.446e-08 0)
(5.161e-07 5.433e-08 0)
(5.04e-07 6.072e-08 0)
(4.892e-07 5.271e-08 0)
(4.822e-07 3.451e-08 0)
(4.867e-07 1.875e-08 0)
(4.971e-07 1.605e-08 0)
(4.987e-07 3.134e-08 0)
(4.811e-07 4.535e-08 0)
(4.608e-07 3.212e-08 0)
(4.619e-07 5.445e-09 0)
(4.863e-07 -6.948e-09 0)
(4.985e-07 2.565e-08 0)
(4.672e-07 5.44e-08 0)
(4.279e-07 2.029e-08 0)
(4.331e-07 -4.642e-08 0)
(5.05e-07 -8.924e-08 0)
(5.535e-07 1.29e-08 0)
(4.717e-07 1.171e-07 0)
(3.569e-07 3.803e-08 0)
(3.593e-07 -1.566e-07 0)
(6.121e-07 -3.876e-07 0)
(7.98e-07 -2.131e-09 0)
(4.658e-07 3.354e-07 0)
(2.5e-07 -2.468e-07 0)
(8.595e-07 5.822e-08 0)
(8.949e-07 1.472e-06 0)
(6.999e-06 3.355e-06 0)
(0.0001154 -6.802e-08 0)
(0.002464 -0.000455 0)
(0.007126 -0.002369 0)
(0.0119 -0.005811 0)
(0.01657 -0.008936 0)
(0.02083 -0.01193 0)
(0.02466 -0.01506 0)
(0.02801 -0.01822 0)
(0.03091 -0.02147 0)
(0.03328 -0.02481 0)
(0.03506 -0.02817 0)
(3.717e-09 -4.832e-08 0)
(1.116e-08 -4.835e-08 0)
(1.86e-08 -4.835e-08 0)
(2.605e-08 -4.834e-08 0)
(3.349e-08 -4.834e-08 0)
(4.094e-08 -4.833e-08 0)
(4.838e-08 -4.831e-08 0)
(5.583e-08 -4.829e-08 0)
(6.327e-08 -4.827e-08 0)
(7.072e-08 -4.825e-08 0)
(7.817e-08 -4.821e-08 0)
(8.56e-08 -4.814e-08 0)
(9.303e-08 -4.807e-08 0)
(1.005e-07 -4.798e-08 0)
(1.079e-07 -4.786e-08 0)
(1.152e-07 -4.77e-08 0)
(1.226e-07 -4.75e-08 0)
(1.298e-07 -4.716e-08 0)
(1.367e-07 -4.663e-08 0)
(1.433e-07 -4.611e-08 0)
(1.499e-07 -4.611e-08 0)
(1.559e-07 -4.63e-08 0)
(1.63e-07 -4.818e-08 0)
(1.698e-07 -4.99e-08 0)
(1.773e-07 -5.049e-08 0)
(1.843e-07 -5.118e-08 0)
(1.909e-07 -5.215e-08 0)
(1.964e-07 -5.348e-08 0)
(2.033e-07 -5.454e-08 0)
(2.096e-07 -5.426e-08 0)
(2.156e-07 -5.504e-08 0)
(2.235e-07 -5.846e-08 0)
(2.317e-07 -6.189e-08 0)
(2.403e-07 -6.506e-08 0)
(2.501e-07 -6.755e-08 0)
(2.595e-07 -6.878e-08 0)
(2.668e-07 -6.907e-08 0)
(2.744e-07 -6.938e-08 0)
(2.824e-07 -6.991e-08 0)
(2.911e-07 -7.007e-08 0)
(2.998e-07 -6.954e-08 0)
(3.097e-07 -7.026e-08 0)
(3.195e-07 -7.205e-08 0)
(3.29e-07 -7.465e-08 0)
(3.379e-07 -7.781e-08 0)
(3.459e-07 -8.143e-08 0)
(3.527e-07 -8.468e-08 0)
(3.585e-07 -8.696e-08 0)
(3.639e-07 -8.761e-08 0)
(3.698e-07 -8.62e-08 0)
(3.774e-07 -8.352e-08 0)
(3.863e-07 -8.124e-08 0)
(3.96e-07 -7.952e-08 0)
(4.06e-07 -7.794e-08 0)
(4.168e-07 -7.655e-08 0)
(4.287e-07 -7.578e-08 0)
(4.421e-07 -7.577e-08 0)
(4.574e-07 -7.753e-08 0)
(4.742e-07 -8.166e-08 0)
(4.873e-07 -8.688e-08 0)
(5.184e-07 -8.945e-08 0)
(5.658e-07 -8.795e-08 0)
(5.407e-07 -7.938e-08 0)
(5.55e-07 -8.22e-08 0)
(5.873e-07 -9.363e-08 0)
(5.738e-07 -9.375e-08 0)
(6.641e-07 -1.262e-07 0)
(7.774e-07 -1.89e-07 0)
(8.002e-07 -2.204e-07 0)
(7.685e-07 -2.26e-07 0)
(8.78e-07 -2.283e-07 0)
(6.418e-07 -1.512e-07 0)
(6.07e-07 -1.476e-07 0)
(5.837e-07 -1.269e-07 0)
(5.501e-07 -1.504e-07 0)
(5.6e-07 -2.288e-07 0)
(5.435e-07 -1.892e-07 0)
(4.679e-07 -1.475e-07 0)
(4.398e-07 -2.641e-07 0)
(5.959e-07 -3.765e-07 0)
(5.497e-07 5.84e-08 0)
(2.576e-07 -6.497e-08 0)
(2.009e-07 -5.602e-07 0)
(5.983e-07 -8.602e-07 0)
(9.294e-07 -8.948e-07 0)
(1.283e-06 -8.071e-07 0)
(1.432e-06 6.432e-07 0)
(1.675e-06 1.513e-06 0)
(8.165e-06 3.222e-06 0)
(5.305e-05 3.403e-06 0)
(3.271e-05 -2.471e-06 0)
(5.639e-06 -1.697e-06 0)
(1.472e-06 -7.369e-07 0)
(1.25e-06 -5.982e-08 0)
(7.245e-07 7.564e-07 0)
(2.57e-07 4.545e-07 0)
(3.422e-07 1.487e-07 0)
(6.306e-07 -4.347e-08 0)
(8.352e-07 2.877e-07 0)
(6.706e-07 5.913e-07 0)
(4.538e-07 3.942e-07 0)
(4.274e-07 2.058e-07 0)
(5.019e-07 7.927e-08 0)
(5.974e-07 1.105e-07 0)
(6.091e-07 2.013e-07 0)
(5.965e-07 1.874e-07 0)
(6.078e-07 2.154e-07 0)
(5.835e-07 2.593e-07 0)
(5.514e-07 2.45e-07 0)
(5.547e-07 2.321e-07 0)
(5.694e-07 2.294e-07 0)
(5.733e-07 2.335e-07 0)
(5.582e-07 2.146e-07 0)
(5.485e-07 1.832e-07 0)
(5.343e-07 1.452e-07 0)
(5.211e-07 1.079e-07 0)
(5.047e-07 7.599e-08 0)
(5e-07 5.412e-08 0)
(5.007e-07 4.072e-08 0)
(5.109e-07 3.433e-08 0)
(5.213e-07 3.461e-08 0)
(5.286e-07 4.436e-08 0)
(5.231e-07 6.562e-08 0)
(4.971e-07 8.456e-08 0)
(4.65e-07 7.064e-08 0)
(4.534e-07 3.337e-08 0)
(4.699e-07 1.35e-09 0)
(5.036e-07 -3.81e-09 0)
(5.19e-07 3.947e-08 0)
(4.811e-07 8.475e-08 0)
(4.305e-07 5.136e-08 0)
(4.321e-07 -1.917e-08 0)
(5.015e-07 -5.924e-08 0)
(5.465e-07 3.997e-08 0)
(4.672e-07 1.412e-07 0)
(3.576e-07 7.03e-08 0)
(3.532e-07 -9.596e-08 0)
(5.487e-07 -2.777e-07 0)
(7.107e-07 -5.09e-09 0)
(5.008e-07 3.288e-07 0)
(1.657e-07 1.177e-07 0)
(2.957e-08 -2.727e-07 0)
(7.225e-07 -6.591e-07 0)
(1.493e-06 5.278e-07 0)
(1.344e-06 1.836e-06 0)
(6.795e-06 3.658e-06 0)
(0.0001001 5.953e-06 0)
(0.001541 -0.000212 0)
(0.005317 -0.001002 0)
(0.009508 -0.003126 0)
(0.01358 -0.005646 0)
(0.01761 -0.007791 0)
(0.02142 -0.01015 0)
(0.02494 -0.0127 0)
(0.02808 -0.01533 0)
(0.03086 -0.01806 0)
(0.03324 -0.02082 0)
(0.03523 -0.02363 0)
(0.03676 -0.02645 0)
(0.03781 -0.02926 0)
(3.718e-09 -5.576e-08 0)
(1.116e-08 -5.58e-08 0)
(1.861e-08 -5.579e-08 0)
(2.605e-08 -5.579e-08 0)
(3.35e-08 -5.578e-08 0)
(4.095e-08 -5.577e-08 0)
(4.84e-08 -5.576e-08 0)
(5.585e-08 -5.574e-08 0)
(6.331e-08 -5.573e-08 0)
(7.078e-08 -5.57e-08 0)
(7.823e-08 -5.566e-08 0)
(8.567e-08 -5.558e-08 0)
(9.312e-08 -5.55e-08 0)
(1.006e-07 -5.541e-08 0)
(1.08e-07 -5.529e-08 0)
(1.155e-07 -5.513e-08 0)
(1.23e-07 -5.492e-08 0)
(1.306e-07 -5.461e-08 0)
(1.381e-07 -5.417e-08 0)
(1.466e-07 -5.411e-08 0)
(1.556e-07 -5.406e-08 0)
(1.599e-07 -5.267e-08 0)
(1.693e-07 -5.477e-08 0)
(1.7e-07 -5.557e-08 0)
(1.771e-07 -5.717e-08 0)
(1.837e-07 -5.781e-08 0)
(1.901e-07 -5.832e-08 0)
(1.956e-07 -5.914e-08 0)
(2.016e-07 -5.998e-08 0)
(2.079e-07 -6.064e-08 0)
(2.132e-07 -6.192e-08 0)
(2.206e-07 -6.623e-08 0)
(2.29e-07 -7.072e-08 0)
(2.392e-07 -7.516e-08 0)
(2.51e-07 -7.777e-08 0)
(2.606e-07 -7.779e-08 0)
(2.671e-07 -7.686e-08 0)
(2.747e-07 -7.73e-08 0)
(2.847e-07 -7.876e-08 0)
(2.913e-07 -7.862e-08 0)
(2.993e-07 -7.852e-08 0)
(3.083e-07 -7.959e-08 0)
(3.174e-07 -8.136e-08 0)
(3.264e-07 -8.363e-08 0)
(3.35e-07 -8.623e-08 0)
(3.43e-07 -8.896e-08 0)
(3.503e-07 -9.139e-08 0)
(3.572e-07 -9.313e-08 0)
(3.64e-07 -9.382e-08 0)
(3.712e-07 -9.328e-08 0)
(3.792e-07 -9.19e-08 0)
(3.88e-07 -9.041e-08 0)
(3.973e-07 -8.91e-08 0)
(4.071e-07 -8.807e-08 0)
(4.173e-07 -8.752e-08 0)
(4.283e-07 -8.779e-08 0)
(4.403e-07 -8.917e-08 0)
(4.533e-07 -9.223e-08 0)
(4.666e-07 -9.74e-08 0)
(4.77e-07 -1.045e-07 0)
(4.802e-07 -1.05e-07 0)
(5.087e-07 -9.437e-08 0)
(5.135e-07 -8.539e-08 0)
(5.473e-07 -1.05e-07 0)
(6.19e-07 -1.364e-07 0)
(6.126e-07 -1.523e-07 0)
(7.151e-07 -1.963e-07 0)
(6.842e-07 -1.887e-07 0)
(5.695e-07 -1.555e-07 0)
(5.138e-07 -1.565e-07 0)
(4.919e-07 -1.164e-07 0)
(4.767e-07 -1.032e-07 0)
(5.258e-07 -1.611e-07 0)
(5.378e-07 -9.457e-08 0)
(4.665e-07 -1.156e-07 0)
(5.21e-07 -3.117e-07 0)
(5.956e-07 -1.733e-07 0)