/*--------------------------------*- C++ -*----------------------------------*\
| =========                 |                                                 |
| \\      /  F ield         | OpenFOAM: The Open Source CFD Toolbox           |
|  \\    /   O peration     | Version:  5.x                                   |
|   \\  /    A nd           | Web:      www.OpenFOAM.org                      |
|    \\/     M anipulation  |                                                 |
\*---------------------------------------------------------------------------*/
FoamFile
{
    version     2.0;
    format      ascii;
    class       volScalarField;
    location    "180";
    object      gamma;
}
// * * * * * * * * * * * * * * * * * * * * * * * * * * * * * * * * * * * * * //

dimensions      [0 0 0 0 0 0 0];

internalField   nonuniform List<scalar> 
86400
(
2.595e-08
3.802e-08
7.26e-08
1.989e-07
5.942e-07
1.222e-06
1.462e-06
1.827e-06
2.428e-06
2.494e-06
2.446e-06
1.543e-06
8.262e-07
3.055e-07
4.691e-07
1.383e-06
1.19e-05
3.24e-05
7.593e-05
4.91e-05
4.404e-05
5.199e-05
0.0001092
0.000118
0.0001568
0.000333
0.0005249
0.0009536
0.001349
0.001746
0.001617
0.001504
0.001332
0.001162
0.001103
0.001321
0.001311
0.001274
0.001032
0.001038
0.001015
0.00115
0.0009726
0.0006889
0.0006166
0.0007017
0.001009
0.001261
0.001447
0.001301
0.001321
0.001421
0.001529
0.001592
0.001644
0.001925
0.002386
0.002773
0.003001
0.00301
0.002602
0.002616
0.002392
0.002407
0.002859
0.003619
0.004305
0.004517
0.003464
0.002992
0.003475
0.004638
0.006646
0.006128
0.005174
0.003843
0.002598
0.002208
0.00244
0.0027
0.003556
0.003926
0.003492
0.002964
0.002722
0.002369
0.002534
0.002623
0.002995
0.003326
0.003061
0.00341
0.003883
0.005317
0.006105
0.006817
0.006095
0.00625
0.006478
0.006223
0.005611
0.005719
0.005005
0.004239
0.002631
0.002451
0.002696
0.004271
0.004498
0.004303
0.003071
0.002609
0.002149
0.001603
0.001008
0.0007033
0.0005938
0.0005598
0.0005033
0.0004934
0.0005724
0.0006684
0.0008648
0.0009813
0.0009048
0.0008014
0.0006921
0.0006204
0.0005458
0.000448
0.0002914
0.0002185
0.0001806
0.0001554
0.0001399
0.0001486
0.0001872
0.0002513
0.0001157
2.235e-05
4.795e-06
3.949e-06
5.825e-06
7.263e-06
3.599e-06
5.778e-07
6.562e-08
1.099e-08
5.422e-09
3.262e-09
7.901e-09
1.364e-08
6.622e-08
1.32e-07
7.469e-07
2.737e-06
8.466e-06
1.561e-05
0.02935
0.9979
3.774e-08
4.734e-08
8.283e-08
1.736e-07
4.271e-07
7.465e-07
8.136e-07
9.319e-07
1.033e-06
6.586e-07
5.769e-07
4.962e-07
4.739e-07
5.031e-07
1.015e-06
2.504e-06
1.04e-05
3.138e-05
8.157e-05
8.869e-05
0.0001053
0.0001715
0.0003485
0.0004753
0.0006485
0.0008469
0.0007856
0.0008051
0.0008172
0.0007999
0.0006892
0.0007422
0.0008169
0.0009168
0.001064
0.001394
0.0015
0.001704
0.001696
0.001814
0.001723
0.001766
0.001539
0.001216
0.001101
0.001288
0.001675
0.002172
0.002738
0.002922
0.003332
0.003991
0.004714
0.005327
0.005495
0.004763
0.00388
0.003261
0.002852
0.002769
0.002713
0.002867
0.002556
0.002603
0.00317
0.004845
0.006117
0.006775
0.005647
0.005363
0.006384
0.006936
0.006213
0.004261
0.002937
0.002497
0.003034
0.004014
0.004807
0.004994
0.005756
0.006237
0.006795
0.00681
0.006801
0.006277
0.006865
0.007391
0.009408
0.01204
0.01321
0.01511
0.01555
0.01484
0.01324
0.01213
0.01052
0.008872
0.006686
0.005691
0.005401
0.006807
0.009343
0.008368
0.004016
0.00279
0.002621
0.003273
0.004416
0.004813
0.003282
0.002979
0.00316
0.003322
0.002899
0.002175
0.00164
0.001398
0.001225
0.001227
0.001283
0.001196
0.001159
0.001094
0.001019
0.001155
0.001253
0.00135
0.001228
0.0009507
0.000579
0.0004395
0.0003701
0.0004283
0.000504
0.0004813
0.0004527
0.0003988
0.0001794
4.867e-05
2.396e-05
1.533e-05
1.03e-05
5.729e-06
1.826e-06
2.781e-07
6.634e-08
3.586e-08
5.592e-08
7.426e-08
1.365e-07
2.412e-07
1.128e-06
3.781e-06
2.741e-05
0.000262
0.002836
0.08935
0.96
0.9998
7.613e-08
8.905e-08
1.247e-07
1.849e-07
3.685e-07
5.266e-07
5.144e-07
5.567e-07
5.169e-07
3.418e-07
3.46e-07
4.807e-07
6.841e-07
1.178e-06
2.537e-06
8.414e-06
3.039e-05
0.0001134
0.0002296
0.0002934
0.0002397
0.0003688
0.0005723
0.0008055
0.001255
0.001994
0.002097
0.002098
0.002008
0.001582
0.001372
0.001723
0.001907
0.001892
0.001685
0.001661
0.001519
0.001717
0.001707
0.001553
0.001135
0.001015
0.0008754
0.000919
0.001201
0.001873
0.002751
0.004076
0.005947
0.005572
0.00432
0.003243
0.002566
0.002367
0.002768
0.002516
0.002216
0.001923
0.00179
0.001823
0.00206
0.002406
0.002408
0.003006
0.003351
0.003933
0.004403
0.004714
0.004219
0.004295
0.004818
0.004024
0.003029
0.002543
0.00254
0.004055
0.007432
0.01081
0.01169
0.01189
0.0126
0.0137
0.01556
0.01676
0.01881
0.01843
0.01877
0.01855
0.01519
0.01111
0.00714
0.004785
0.004355
0.005529
0.006564
0.007644
0.008326
0.006121
0.004235
0.003652
0.003551
0.004387
0.006184
0.00493
0.00246
0.002033
0.002566
0.004031
0.006994
0.007175
0.005353
0.006062
0.007405
0.008171
0.006607
0.004664
0.002936
0.002163
0.001723
0.001711
0.001548
0.001496
0.001341
0.001132
0.0009632
0.00105
0.001078
0.001158
0.001078
0.0008712
0.0005965
0.0004832
0.0004148
0.0005401
0.0006807
0.0005652
0.0004384
0.0003029
0.000147
4.993e-05
2.8e-05
1.421e-05
7.806e-06
4.127e-06
1.826e-06
5.244e-07
1.978e-07
1.733e-07
3.353e-07
8.177e-07
2.567e-06
5.951e-06
2.143e-05
9.09e-05
0.0008817
0.01859
0.4809
0.9774
0.9997
1
1.769e-07
1.813e-07
1.973e-07
2.11e-07
3.021e-07
3.077e-07
2.46e-07
2.423e-07
2.403e-07
2.185e-07
3.259e-07
3.256e-07
3.304e-07
7.297e-07
2.378e-06
6.727e-06
2.435e-05
5.581e-05
3.749e-05
2.948e-05
2.047e-05
2.242e-05
4.483e-05
8.832e-05
0.00019
0.0004608
0.0007703
0.001
0.001214
0.001169
0.001111
0.00176
0.002453
0.002866
0.002468
0.002161
0.001822
0.002149
0.002229
0.001909
0.001327
0.001272
0.001443
0.0022
0.002739
0.003071
0.002552
0.002463
0.002872
0.002612
0.001718
0.001247
0.001147
0.001094
0.001369
0.001143
0.0008176
0.0006783
0.0008224
0.00116
0.001642
0.002256
0.002652
0.003368
0.003489
0.003552
0.003295
0.003081
0.002669
0.003809
0.005763
0.00514
0.004552
0.004621
0.00407
0.007138
0.01218
0.01424
0.01153
0.01218
0.01011
0.008474
0.007365
0.005925
0.005192
0.005449
0.00557
0.005655
0.005173
0.004911
0.0044
0.003671
0.004033
0.005176
0.005939
0.006506
0.007499
0.004899
0.003201
0.002661
0.002728
0.003638
0.005906
0.005232
0.002603
0.001481
0.001308
0.001934
0.003019
0.003294
0.00257
0.002588
0.002388
0.0036
0.004111
0.004604
0.003945
0.004098
0.003292
0.003446
0.002807
0.00262
0.002012
0.001574
0.001318
0.001469
0.001709
0.00197
0.002013
0.001739
0.001261
0.001094
0.001054
0.001214
0.001165
0.0006661
0.0003023
9.37e-05
4.797e-05
1.97e-05
1.276e-05
6.765e-06
4.082e-06
2.441e-06
1.758e-06
1.034e-06
8.599e-07
2.174e-06
9.798e-06
2.93e-05
8.462e-05
0.0002393
0.0008504
0.006305
0.09779
0.8779
0.9937
0.9999
1
1
5.358e-07
4.291e-07
3.668e-07
3.176e-07
2.964e-07
2.429e-07
1.508e-07
1.39e-07
1.7e-07
1.962e-07
3.783e-07
2.491e-07
8.746e-08
1.506e-07
8.006e-07
4.25e-06
4.36e-05
4.472e-05
1.108e-05
4.101e-06
3.614e-06
4.29e-06
9.959e-06
1.306e-05
2.94e-05
0.0001221
0.0005971
0.002082
0.004603
0.003201
0.001616
0.001411
0.001181
0.001029
0.00093
0.0007991
0.0005909
0.0008891
0.001547
0.002121
0.001338
0.0006666
0.0003018
0.0002585
0.0002193
0.0002159
0.0002099
0.0003303
0.0007366
0.001248
0.001037
0.0006388
0.0007603
0.0009616
0.001345
0.001043
0.0006204
0.0005605
0.0008036
0.001509
0.002789
0.004761
0.00694
0.008834
0.007185
0.004399
0.003078
0.002211
0.00152
0.00169
0.002509
0.002278
0.003108
0.005036
0.005446
0.005728
0.005854
0.003593
0.001842
0.001429
0.0006643
0.0002855
0.0002074
0.0002314
0.0004094
0.001111
0.002152
0.002351
0.00219
0.002133
0.001688
0.001649
0.00228
0.003194
0.004808
0.005274
0.005749
0.003706
0.002753
0.001825
0.0009163
0.0006009
0.0008989
0.001269
0.001587
0.001998
0.002144
0.00275
0.003317
0.003059
0.001925
0.001556
0.00117
0.002122
0.002159
0.002226
0.001699
0.001663
0.001096
0.001328
0.001194
0.001197
0.001003
0.0007713
0.0006426
0.0006504
0.0006789
0.0008436
0.001048
0.001147
0.001128
0.001082
0.0009922
0.0008441
0.00056
0.0002181
6.903e-05
2.322e-05
1.23e-05
5.508e-06
4.093e-06
2.791e-06
2.846e-06
3.675e-06
5.451e-06
6.567e-06
7.917e-06
1.536e-05
6.019e-05
0.000262
0.001275
0.007473
0.05979
0.6486
0.9695
0.999
1
1
1
1
1.015e-06
7.014e-07
5.58e-07
4.606e-07
3.053e-07
1.998e-07
1.362e-07
1.309e-07
2.162e-07
3.909e-07
1.073e-06
4.273e-07
7.577e-08
5.269e-08
5.241e-07
2.208e-06
2.221e-05
1.487e-05
3.623e-06
1.372e-06
3.109e-06
5.018e-06
1.207e-05
6.203e-06
6.084e-06
1.262e-05
4.462e-05
0.0002647
0.00114
0.0009618
0.0004279
0.0002746
0.0002092
0.0001995
0.0002998
0.0003289
0.0001784
0.0001761
0.0002475
0.0001879
5.757e-05
2.048e-05
4.342e-06
1.748e-06
1.081e-06
5.378e-07
2.152e-07
3.465e-07
1.342e-06
5.111e-06
9.167e-06
1.505e-05
3.69e-05
0.0001465
0.0003493
0.0002793
0.0001124
8.162e-05
0.000129
0.000423
0.001188
0.00238
0.002841
0.003576
0.003176
0.002037
0.00237
0.002068
0.00139
0.001363
0.002196
0.002
0.002896
0.003283
0.00154
0.0004593
0.0001108
4.28e-05
3.391e-05
5.775e-05
6.327e-05
4.656e-05
3.298e-05
4.701e-05
0.00013
0.000606
0.002026
0.002773
0.003232
0.003461
0.00341
0.002446
0.002271
0.001979
0.001706
0.001728
0.001631
0.001447
0.001802
0.001698
0.0009986
0.0005679
0.0005685
0.0007601
0.001327
0.00185
0.001318
0.001503
0.001625
0.001452
0.0006285
0.0003319
0.0001716
0.0003444
0.0005233
0.0008249
0.0008071
0.0007397
0.0005307
0.0006319
0.000532
0.0004941
0.0004109
0.0003191
0.0002779
0.0002788
0.000279
0.0003519
0.0004416
0.0004688
0.0003909
0.000323
0.0002683
0.0001973
0.0001566
8.099e-05
4.872e-05
2.558e-05
1.704e-05
8.034e-06
6.755e-06
6.115e-06
7.022e-06
1.095e-05
2.151e-05
3.868e-05
8.707e-05
0.0002987
0.001486
0.008365
0.05618
0.5298
0.9506
0.9969
0.9999
1
1
1
1
1
1.426e-06
7.889e-07
5.267e-07
3.506e-07
2.75e-07
2.3e-07
2.335e-07
2.876e-07
6.876e-07
1.337e-06
2.944e-06
1.019e-06
7.235e-08
3.193e-08
2.038e-07
1.346e-06
3.042e-05
7.288e-05
2.712e-05
1.526e-05
5.397e-05
6.558e-05
0.0001039
2.681e-05
1.137e-05
1.411e-05
3.866e-05
0.0001598
0.0007913
0.0007835
0.0004056
0.0001527
0.0001053
0.0001231
0.0002254
0.0002479
8.925e-05
5.488e-05
7.972e-05
5.227e-05
8.451e-06
1.141e-06
6.432e-08
8.589e-09
3.574e-09
6.948e-10
2.295e-10
5.731e-10
6.27e-09
6.191e-08
2.697e-07
3.373e-07
4.234e-07
9.424e-07
1.122e-06
1.542e-06
2.303e-06
6.658e-06
3.363e-05
0.000209
0.0006127
0.001423
0.002071
0.003735
0.003986
0.002074
0.002348
0.001929
0.001379
0.0009885
0.001271
0.0007081
0.0007422
0.0006604
0.0003199
9.055e-05
1.892e-05
7.617e-06
5.014e-06
9.351e-06
1.629e-05
2.293e-05
2.636e-05
4.405e-05
9.699e-05
0.0001851
0.0003572
0.0003944
0.0007173
0.001865
0.00251
0.001885
0.001075
0.0006136
0.0003715
0.0002442
0.0001238
7.16e-05
6.39e-05
5.523e-05
6.481e-05
6.322e-05
0.000114
0.0003612
0.001419
0.002245
0.001776
0.001753
0.001622
0.001035
0.0004497
0.0001594
7.267e-05
0.0001423
0.0003367
0.0005156
0.0004815
0.0003422
0.0002267
0.0002562
0.0002517
0.0002675
0.0002623
0.0002187
0.0001543
0.0001017
6.817e-05
6.53e-05
7.975e-05
0.0001067
0.0001035
8.87e-05
6.531e-05
3.706e-05
3.046e-05
3.376e-05
4.018e-05
4.187e-05
4.895e-05
3.176e-05
3.014e-05
4.236e-05
8.336e-05
0.0002173
0.0008505
0.003249
0.01081
0.03814
0.1691
0.7834
0.9665
0.9974
0.9999
1
1
1
1
1
1
1
2.752e-06
1.02e-06
5.1e-07
3.119e-07
2.925e-07
3.072e-07
5.595e-07
1.017e-06
1.639e-06
1.239e-06
1.819e-06
5.182e-07
3.81e-08
3.271e-08
2.632e-07
2.382e-06
6.588e-05
0.0003518
0.0003703
0.0006273
0.001479
0.001438
0.001511
0.0004069
0.0001283
4.265e-05
2.755e-05
4.737e-05
0.0001683
0.0002464
0.0002117
0.0001532
0.0001193
0.0001809
0.0003868
0.0004953
0.0001805
0.0001126
0.0001293
2.913e-05
2.084e-06
8.295e-08
2.712e-09
2.464e-10
2.045e-10
4.273e-11
1.416e-11
2.242e-11
6.594e-11
5.171e-10
3.025e-09
4.214e-09
7.694e-09
2.249e-08
2.399e-08
2.91e-08
8.452e-08
6.45e-07
7.796e-06
0.0001053
0.00044
0.001209
0.002111
0.005307
0.005738
0.003006
0.002375
0.001488
0.000697
0.0003048
0.0001639
6.422e-05
4.459e-05
5.607e-05
5.493e-05
3.036e-05
6.333e-06
2.656e-06
1.387e-06
2.448e-06
5.532e-06
1.713e-05
4.102e-05
8.361e-05
0.0001203
0.0001132
0.0001505
0.0001723
0.0003033
0.0009577
0.001795
0.001523
0.0005566
0.0003548
0.0002413
0.0001895
0.0001333
8.089e-05
3.627e-05
2.331e-05
3.82e-05
6.382e-05
0.0001222
0.0001733
0.0002459
0.0002219
0.0002201
0.0003392
0.0004692
0.0003378
0.0001129
1.845e-05
1.017e-05
2.931e-05
0.0001265
0.0002448
0.0002869
0.0001215
6.168e-05
6.023e-05
5.991e-05
6.055e-05
6.389e-05
6.316e-05
5.148e-05
3.768e-05
2.584e-05
2.381e-05
2.965e-05
4.601e-05
5.823e-05
5.659e-05
3.766e-05
1.973e-05
1.886e-05
3.627e-05
0.0001063
0.0002343
0.000411
0.0005065
0.001023
0.002891
0.009732
0.0262
0.09213
0.5696
0.8845
0.9775
0.9964
0.9997
1
1
1
1
1
1
1
1
1
1
5.604e-06
1.206e-06
4.327e-07
2.281e-07
2.515e-07
3.955e-07
1.6e-06
1.881e-06
1.318e-06
5.844e-07
3.476e-07
1.396e-07
4.624e-08
1.079e-07
1.082e-06
7.46e-06
3.64e-05
0.0001016
0.0001074
0.0001394
0.0004834
0.001552
0.003715
0.003559
0.002525
0.0006306
0.0001552
7.564e-05
0.0001112
0.0001867
0.0003203
0.0002884
0.0001809
0.0002337
0.0003499
0.000411
0.0001842
0.0001365
0.000212
1.526e-05
3.515e-07
4.76e-09
1.058e-10
1.78e-11
1.019e-10
6.969e-11
3.532e-11
3.361e-11
3.375e-11
5.419e-11
3.419e-10
8.201e-10
2.921e-09
4.939e-09
2.78e-09
1.257e-09
3.043e-09
4.213e-08
1.242e-06
4.594e-05
0.0003882
0.001263
0.001934
0.003631
0.002672
0.000891
0.000351
0.0001514
3.26e-05
1.135e-05
4.553e-06
1.902e-06
1.249e-06
2.572e-06
3.186e-06
8.39e-06
7.188e-06
6.336e-06
3.987e-06
8.669e-06
5.367e-05
0.0008187
0.009332
0.02988
0.03137
0.01329
0.008281
0.01075
0.0149
0.02299
0.02562
0.0215
0.01418
0.01396
0.01024
0.01789
0.02051
0.007552
0.001342
0.0001347
6.861e-05
5.633e-05
0.000126
0.0001514
0.0001037
5.386e-05
7.028e-05
7.509e-05
8.619e-05
4.661e-05
1.089e-05
2.187e-06
2.826e-06
4.428e-06
1.497e-05
2.634e-05
3.504e-05
1.697e-05
1.095e-05
7.525e-06
6.398e-06
6.402e-06
7.661e-06
9.76e-06
1.074e-05
9.642e-06
7.125e-06
6.66e-06
9.851e-06
2.537e-05
7.829e-05
0.0001885
0.0002385
0.0002083
0.0002929
0.0008141
0.003487
0.01114
0.02051
0.03706
0.1356
0.6092
0.9053
0.9785
0.9951
0.9992
0.9999
1
1
1
1
1
1
1
1
1
1
1
1
1
4.75e-06
9.824e-07
4.447e-07
3.028e-07
4.795e-07
9.519e-07
2.176e-06
1.008e-06
4.15e-07
2.082e-07
9.778e-08
1.154e-07
1.515e-07
7.157e-07
8.016e-06
2.834e-05
2.73e-05
1.15e-05
3.981e-06
2.402e-06
9.092e-06
7.023e-05
0.0006447
0.002901
0.004583
0.001217
0.0002007
7.717e-05
7.597e-05
0.0002289
0.0006336
0.0005852
0.0002535
0.0001927
0.0001378
0.000201
0.0002772
0.0004167
0.0004765
1.657e-05
1.987e-07
1.618e-09
5.612e-11
2.551e-11
4.321e-10
9.691e-10
4.451e-10
1.258e-10
1.526e-11
5.536e-12
4.218e-11
3.109e-10
3.917e-09
1.121e-08
2.323e-09
2.725e-10
3.643e-10
5.748e-09
5.837e-07
5.342e-05
0.0004195
0.0009192
0.0004331
0.0002984
9.386e-05
2.464e-05
9.429e-06
4.9e-06
1.629e-06
1.313e-06
1.087e-06
1.126e-06
2.065e-06
1.658e-05
3.828e-05
0.0001612
0.000455
0.001997
0.004204
0.02409
0.2406
0.7859
0.9558
0.9891
0.995
0.9969
0.9978
0.9979
0.9969
0.9965
0.9963
0.9966
0.9973
0.9974
0.9966
0.9973
0.9971
0.9937
0.9704
0.7353
0.06574
0.01748
0.01256
0.00469
0.0007063
0.0001168
9.119e-05
6.524e-05
4.868e-05
1.715e-05
2.427e-06
7.174e-07
1.761e-06
3.111e-06
1.479e-05
3.459e-05
7.34e-05
5.716e-05
5.052e-05
2.687e-05
2.097e-05
2.205e-05
3.106e-05
5.495e-05
9.61e-05
0.0001355
0.0001381
0.0001369
0.000218
0.0005991
0.002661
0.009224
0.01519
0.01563
0.02811
0.1018
0.6203
0.9033
0.9721
0.9919
0.9979
0.9995
0.9999
1
1
1
1
1
1
1
1
1
1
1
1
1
1
1
1
1
1.815e-06
4.424e-07
3.196e-07
4.58e-07
1.345e-06
2.963e-06
1.908e-06
4.307e-07
1.164e-07
7.552e-08
6.115e-08
1.681e-07
7.516e-07
7.205e-06
3.142e-05
6.197e-05
1.274e-05
6.779e-07
7.672e-08
3.904e-08
2.618e-07
4.047e-06
0.0001541
0.001647
0.004752
0.001834
0.000696
0.0002957
0.0002224
0.0004996
0.0008103
0.0003476
6.459e-05
1.613e-05
1.017e-05
1.61e-05
5.775e-05
0.0002248
0.0003696
2.961e-05
5.888e-07
6.124e-09
3.416e-10
2.523e-10
2.561e-09
5.716e-09
3.367e-09
6.335e-10
4.508e-11
1.161e-11
7.548e-11
1.08e-09
3.979e-08
1.671e-07
3.008e-08
1.681e-09
1.33e-09
1.754e-08
1.667e-06
0.0001566
0.0006149
0.0003828
6.962e-05
2.812e-05
1.161e-05
4.036e-06
1.582e-06
8.325e-07
5.187e-07
9.399e-07
3.52e-06
2.05e-05
0.0001391
0.001501
0.005518
0.03671
0.3155
0.8917
0.9679
0.9937
0.9983
0.9995
0.9999
1
1
1
1
1
1
1
1
1
1
1
1
1
1
1
1
0.9998
0.998
0.9934
0.9883
0.966
0.7808
0.06383
0.01368
0.003521
0.0009855
0.0001168
2.736e-05
1.154e-05
4.417e-05
9.54e-05
0.0002569
0.0004493
0.001257
0.001213
0.001255
0.0005752
0.0003329
0.0002494
0.0003074
0.0006894
0.002375
0.006561
0.01126
0.01362
0.02689
0.09831
0.6366
0.9148
0.9797
0.9924
0.9971
0.9987
0.9995
0.9999
1
1
1
1
1
1
1
1
1
1
1
1
1
1
1
1
1
1
1
1
1
1
4.241e-07
1.729e-07
2.25e-07
4.715e-07
1.042e-06
2.284e-06
8.089e-07
2.516e-07
1.067e-07
2.803e-07
3.175e-07
1.99e-06
1.252e-05
4.89e-05
8.851e-05
0.0001036
8.893e-06
2.67e-07
1.812e-08
5.943e-09
5.117e-08
3.245e-06
0.0002877
0.002588
0.005339
0.001669
0.0008359
0.0004694
0.0005058
0.001008
0.001057
0.0002799
2.6e-05
4.833e-06
1.873e-06
3.115e-06
1.589e-05
5.968e-05
8.007e-05
1.074e-05
3.653e-07
1.483e-08
2.002e-09
1.894e-09
5.757e-09
6.188e-09
3.074e-09
3.387e-10
1.679e-11
5e-12
3.312e-11
1.589e-09
2.424e-07
4.01e-06
1.339e-06
5.923e-08
1.826e-08
1.203e-07
4.556e-06
0.0001496
0.0002293
6.379e-05
4.725e-06
1.052e-06
4.887e-07
4.341e-07
6.95e-07
2.479e-06
1.098e-05
5.665e-05
0.0008092
0.007665
0.1319
0.7703
0.943
0.9884
0.9982
0.9998
1
1
1
1
1
1
1
1
1
1
1
1
1
1
1
1
1
1
1
1
1
1
1
1
1
1
0.9998
0.9985
0.9945
0.9768
0.8917
0.2473
0.007449
0.00122
0.0021
0.003943
0.01126
0.0131
0.02141
0.02393
0.01931
0.01154
0.009079
0.0102
0.0222
0.1122
0.5925
0.9058
0.9763
0.9911
0.9966
0.9986
0.9995
0.9999
1
1
1
1
1
1
1
1
1
1
1
1
1
1
1
1
1
1
1
1
1
1
1
1
1
1
1
1
2.204e-07
1.819e-07
2.652e-07
5.852e-07
1.187e-06
2.171e-06
6.243e-07
2.718e-07
2.836e-07
6.154e-07
1.317e-06
1.033e-05
4.483e-05
9.904e-05
0.0001689
0.0001206
1.745e-05
6.249e-07
3.998e-08
8.637e-09
5.613e-08
2.87e-06
0.0002586
0.002235
0.006117
0.00326
0.002882
0.002264
0.002443
0.003057
0.002243
0.000578
9.288e-05
1.918e-05
5.632e-06
6.071e-06
2.309e-05
5.667e-05
5.941e-05
1.531e-05
1.819e-06
1.601e-07
5.05e-08
3.491e-08
2.525e-08
2.296e-08
8.493e-09
2.637e-09
3.718e-10
2.579e-10
1.005e-09
1.797e-08
6.467e-07
3.958e-06
1.732e-06
1.993e-07
1.253e-07
6.585e-07
2.122e-05
0.000123
4.175e-05
5.348e-06
3.708e-07
2.36e-07
7.487e-07
4.307e-06
3.456e-05
0.0006086
0.00781
0.1079
0.8021
0.9699
0.9952
0.9991
0.9999
1
1
1
1
1
1
1
1
1
1
1
1
1
1
1
1
1
1
1
1
1
1
1
1
1
1
1
1
1
1
1
1
1
0.9999
0.9994
0.9981
0.9968
0.9969
0.9966
0.9967
0.9951
0.9947
0.995
0.995
0.9951
0.9948
0.9947
0.9962
0.9983
0.9993
0.9999
1
1
1
1
1
1
1
1
1
1
1
1
1
1
1
1
1
1
1
1
1
1
1
1
1
1
1
1
1
1
1
1
1
1
2.934e-07
3.421e-07
6.545e-07
9.805e-07
1.727e-06
2.254e-06
1.13e-06
7.602e-07
2.024e-06
2.54e-06
5.495e-06
2.095e-05
6.385e-05
8.525e-05
0.0001246
0.000124
7.174e-05
4.621e-06
4.236e-07
6.996e-08
2.907e-07
7.476e-06
0.0003426
0.001636
0.002897
0.00225
0.003217
0.004287
0.00556
0.006063
0.004425
0.001997
0.0007365
0.0002384
6.513e-05
4.474e-05
7.286e-05
0.0001139
0.000123
7.531e-05
2.039e-05
4.527e-06
2.47e-06
1.66e-06
5.829e-07
6.025e-07
3.55e-07
1.821e-07
3.917e-08
2.141e-08
2.073e-08
8.9e-08
4.519e-07
1.012e-06
5.309e-07
2.21e-07
4.827e-07
5.368e-06
7.947e-05
0.0001353
2.633e-05
8.1e-06
3.254e-06
1.014e-05
0.000153
0.003606
0.05442
0.7683
0.9648
0.9935
0.9993
1
1
1
1
1
1
1
1
1
1
1
1
1
1
1
1
1
1
1
1
1
1
1
1
1
1
1
1
1
1
1
1
1
1
1
1
1
1
1
1
1
1
1
1
1
1
1
1
1
1
1
1
1
1
1
1
1
1
1
1
1
1
1
1
1
1
1
1
1
1
1
1
1
1
1
1
1
1
1
1
1
1
1
1
1
1
1
1
1
1.185e-06
1.454e-06
3.184e-06
1.63e-06
2.581e-06
1.971e-06
2.245e-06
3.462e-06
1.131e-05
5.985e-06
1.137e-05
9.368e-06
3.038e-05
2.655e-05
4.955e-05
3.04e-05
8.915e-06
2.832e-07
1.761e-08
3.009e-09
1.318e-08
3.616e-07
2.195e-05
0.0001232
0.0004063
0.0004929
0.000789
0.001516
0.002603
0.00283
0.002369
0.001528
0.001269
0.0008279
0.0003882
0.0002258
0.0003015
0.0003814
0.000524
0.0006938
0.0002228
8.59e-05
4.608e-05
4.039e-05
1.659e-05
2.841e-05
2.269e-05
1.699e-05
5.749e-06
3.94e-06
1.842e-06
1.547e-06
1.955e-06
2.713e-06
2.444e-06
1.601e-06
4.055e-06
1.634e-05
9.149e-05
0.0001323
9.325e-05
0.0001075
0.0003098
0.005693
0.2882
0.9202
0.9886
0.9992
0.9999
1
1
1
1
1
1
1
1
1
1
1
1
1
1
1
1
1
1
1
1
1
1
1
1
1
1
1
1
1
1
1
1
1
1
1
1
1
1
1
1
1
1
1
1
1
1
1
1
1
1
1
1
1
1
1
1
1
1
1
1
1
1
1
1
1
1
1
1
1
1
1
1
1
1
1
1
1
1
1
1
1
1
1
1
1
1
1
1
1
1
1
2.81e-06
3.961e-06
1.252e-05
5.038e-06
3.94e-06
1.819e-06
2.79e-06
6.256e-06
1.743e-05
7.367e-06
1.288e-05
8.201e-06
1.169e-05
1.729e-05
1.481e-05
1.595e-06
2.351e-07
4.818e-09
2.432e-10
4.915e-11
3.847e-10
3.292e-08
4.031e-06
5.15e-05
0.0002906
0.0002729
0.0006393
0.001239
0.002384
0.002522
0.002255
0.001646
0.001837
0.001932
0.001393
0.001117
0.001515
0.001678
0.00233
0.003833
0.001478
0.000647
0.000339
0.0003734
0.0001645
0.0001802
0.0001525
0.0001682
0.0001607
0.0001751
9.257e-05
3.972e-05
2.359e-05
1.098e-05
7.439e-06
6.382e-06
1.162e-05
4.143e-05
0.0003759
0.001078
0.003934
0.03041
0.3133
0.9146
0.9929
0.9996
1
1
1
1
1
1
1
1
1
1
1
1
1
1
1
1
1
1
1
1
1
1
1
1
1
1
1
1
1
1
1
1
1
1
1
1
1
1
1
1
1
1
1
1
1
1
1
1
1
1
1
1
1
1
1
1
1
1
1
1
1
1
1
1
1
1
1
1
1
1
1
1
1
1
1
1
1
1
1
1
1
1
1
1
1
1
1
1
1
1
1
1
1
1
6.47e-06
1.26e-05
5.207e-05
2.773e-05
1.211e-05
5.387e-06
1.066e-05
1.662e-05
2.682e-05
1.325e-05
1.44e-05
1.492e-05
2.257e-05
3.16e-05
5.03e-06
1.837e-07
1.134e-08
2.742e-10
2.905e-11
1.206e-11
2.67e-10
2.841e-08
3.152e-06
5.464e-05
0.0004579
0.0003689
0.0006556
0.001233
0.002021
0.001842
0.001587
0.001047
0.001435
0.001715
0.002189
0.002453
0.003964
0.00384
0.004786
0.006736
0.003368
0.002192
0.001495
0.00151
0.0005548
0.0003709
0.0001705
0.0001607
0.0002672
0.0005062
0.0003482
0.0001159
6.101e-05
2.595e-05
3.552e-05
4.675e-05
0.0001428
0.0005531
0.007592
0.07219
0.5431
0.9253
0.9945
0.9998
1
1
1
1
1
1
1
1
1
1
1
1
1
1
1
1
1
1
1
1
1
1
1
1
1
1
1
1
1
1
1
1
1
1
1
1
1
1
1
1
1
1
1
1
1
1
1
1
1
1
1
1
1
1
1
1
1
1
1
1
1
1
1
1
1
1
1
1
1
1
1
1
1
1
1
1
1
1
1
1
1
1
1
1
1
1
1
1
1
1
1
1
1
1
1
1
4.301e-06
1.319e-05
8.186e-05
4.437e-05
1.749e-05
1.445e-05
3.09e-05
0.0001102
0.000112
5.716e-05
3.208e-05
2.705e-05
2.607e-05
3.364e-05
1.097e-06
2.908e-08
2.6e-09
2.381e-10
6.106e-11
6e-11
2.045e-09
1.754e-07
2.159e-05
0.0002733
0.001294
0.0006368
0.0008592
0.00114
0.001777
0.001808
0.001699
0.001267
0.001987
0.002429
0.002366
0.002586
0.003324
0.001932
0.001242
0.001345
0.001214
0.001845
0.003463
0.004927
0.002091
0.0007835
0.0001446
7.02e-05
5.03e-05
6.915e-05
5.52e-05
3.391e-05
5.314e-05
9.895e-05
0.0002721
0.001075
0.008871
0.05967
0.7558
0.9681
0.9964
0.9998
1
1
1
1
1
1
1
1
1
1
1
1
1
1
1
1
1
1
1
1
1
1
1
1
1
1
1
1
1
1
1
1
1
1
1
1
1
1
1
1
1
1
1
1
1
1
1
1
1
1
1
1
1
1
1
1
1
1
1
1
1
1
1
1
1
1
1
1
1
1
1
1
1
1
1
1
1
1
1
1
1
1
1
1
1
1
1
1
1
1
1
1
1
1
1
1
1
1
1.047e-05
3.05e-05
0.0001321
7.951e-05
1.787e-05
2.147e-05
7.606e-05
0.0004095
0.0003807
0.0001449
5.603e-05
3.485e-05
1.418e-05
1.373e-05
4.536e-07
1.785e-08
6.195e-09
3.84e-09
2.619e-09
5.613e-09
1.356e-07
5.015e-06
0.0002291
0.001651
0.00499
0.002223
0.002408
0.002093
0.00217
0.001723
0.001532
0.00153
0.002882
0.003838
0.003098
0.002881
0.00285
0.001488
0.0007757
0.0005853
0.0004307
0.0006894
0.001332
0.002066
0.001255
0.0007467
0.0001867
6.089e-05
1.932e-05
1.343e-05
1.001e-05
1.365e-05
6.512e-05
0.0004617
0.003485
0.04692
0.705
0.9573
0.9976
0.9998
1
1
1
1
1
1
1
1
1
1
1
1
1
1
1
1
1
1
1
1
1
1
1
1
1
1
1
1
1
1
1
1
1
1
1
1
1
1
1
1
1
1
1
1
1
1
1
1
1
1
1
1
1
1
1
1
1
1
1
1
1
1
1
1
1
1
1
1
1
1
1
1
1
1
1
1
1
1
1
1
1
1
1
1
1
1
1
1
1
1
1
1
1
1
1
1
1
1
1
1
2.331e-05
5.868e-05
0.0002363
0.0001535
3.542e-05
5.675e-05
0.0001465
0.0007465
0.0006714
0.000216
4.637e-05
3.028e-05
1.598e-05
1.23e-05
8.261e-07
1e-07
1.238e-07
3.359e-07
4.879e-07
1.15e-06
1.1e-05
0.0001008
0.0009109
0.00287
0.005253
0.002771
0.003331
0.002773
0.00251
0.001611
0.00181
0.002761
0.006049
0.009129
0.006153
0.004175
0.002262
0.001016
0.0004284
0.0002726
0.0001707
0.0002667
0.000434
0.0006268
0.0007119
0.0007079
0.0003003
0.0001308
3.979e-05
1.483e-05
7.792e-06
3.859e-05
0.0005536
0.01066
0.4098
0.9459
0.9973
0.9999
1
1
1
1
1
1
1
1
1
1
1
1
1
1
1
1
1
1
1
1
1
1
1
1
1
1
1
1
1
1
1
1
1
1
1
1
1
1
1
1
1
1
1
1
1
1
1
1
1
1
1
1
1
1
1
1
1
1
1
1
1
1
1
1
1
1
1
1
1
1
1
1
1
1
1
1
1
1
1
1
1
1
1
1
1
1
1
1
1
1
1
1
1
1
1
1
1
1
1
1
1
1
8.347e-05
0.0001927
0.0005598
0.0002387
6.282e-05
8.963e-05
0.0001252
0.0007446
0.00114
0.0004841
0.0001316
0.0001368
8.174e-05
5.75e-05
7.845e-06
1.581e-06
2.132e-06
8.344e-06
1.829e-05
7.748e-05
0.0003033
0.0005251
0.0007697
0.0007456
0.000673
0.000774
0.002339
0.002007
0.00183
0.001019
0.0008864
0.001086
0.002713
0.005332
0.004866
0.003747
0.002122
0.001137
0.0007104
0.0005123
0.0002767
0.0002367
0.0002
0.0001773
0.0002537
0.0004158
0.0004094
0.0003502
0.0001933
8.524e-05
0.0001586
0.001323
0.08771
0.884
0.9932
0.9996
1
1
1
1
1
1
1
1
1
1
1
1
1
1
1
1
1
1
1
1
1
1
1
1
1
1
1
1
1
1
1
1
1
1
1
1
1
1
1
1
1
1
1
1
1
1
1
1
1
1
1
1
1
1
1
1
1
1
1
1
1
1
1
1
1
1
1
1
1
1
1
1
1
1
1
1
1
1
1
1
1
1
1
1
1
1
1
1
1
1
1
1
1
1
1
1
1
1
1
1
1
1
1
1
0.0001468
0.0003132
0.0008018
0.0003062
9.051e-05
5.431e-05
3.896e-05
0.0002665
0.0008825
0.0009144
0.0003691
0.0006457
0.0004132
0.000284
8.162e-05
2.927e-05
3.969e-05
0.0001501
0.0002327
0.0006936
0.001332
0.0009341
0.0005283
0.0002927
0.0002515
0.0004304
0.002525
0.002133
0.001986
0.001188
0.0008926
0.0007047
0.001329
0.002832
0.004023
0.004714
0.003749
0.002637
0.002188
0.001465
0.000491
0.0002287
0.0001131
6.993e-05
9.865e-05
0.0002723
0.0004757
0.0009032
0.002005
0.003636
0.02976
0.7231
0.9866
0.9994
1
1
1
1
1
1
1
1
1
1
1
1
1
1
1
1
1
1
1
1
1
1
1
1
1
1
1
1
1
1
0.9999
0.9997
0.9989
0.9974
0.9956
0.9944
0.9954
0.9956
0.9944
0.9956
0.9972
0.9981
0.9996
0.9999
1
1
1
1
1
1
1
1
1
1
1
1
1
1
1
1
1
1
1
1
1
1
1
1
1
1
1
1
1
1
1
1
1
1
1
1
1
1
1
1
1
1
1
1
1
1
1
1
1
1
1
1
1
1
1
1
1
1
1
1
1
1
0.0002481
0.0004758
0.001218
0.0002879
8.541e-05
1.851e-05
9.606e-06
8.251e-05
0.0009435
0.002663
0.002329
0.004053
0.002314
0.001507
0.0006475
0.0004058
0.0002834
0.0006769
0.0006463
0.001415
0.001881
0.0009642
0.0004971
0.0002352
0.0003928
0.0009523
0.005597
0.004636
0.003483
0.001887
0.001246
0.0006014
0.0006987
0.001325
0.002719
0.005392
0.007775
0.005757
0.005365
0.003521
0.001109
0.0004197
0.0001415
7.113e-05
0.0001087
0.000335
0.000855
0.003172
0.02429
0.2757
0.9331
0.9977
0.9999
1
1
1
1
1
1
1
1
1
1
1
1
1
1
1
1
1
1
1
1
1
1
1
1
1
1
0.9999
0.9994
0.9975
0.9959
0.9914
0.9826
0.9372
0.7339
0.2498
0.06498
0.02462
0.01672
0.01323
0.01887
0.04278
0.1166
0.2229
0.787
0.9524
0.9897
0.9967
0.9992
0.9997
1
1
1
1
1
1
1
1
1
1
1
1
1
1
1
1
1
1
1
1
1
1
1
1
1
1
1
1
1
1
1
1
1
1
1
1
1
1
1
1
1
1
1
1
1
1
1
1
1
1
1
1
1
1
1
1
1
1
0.0002273
0.0003509
0.001029
0.0003518
0.0002588
3.816e-05
1.724e-05
5.323e-05
0.0005903
0.001197
0.001879
0.003446
0.003262
0.002244
0.001112
0.001023
0.0007068
0.001202
0.001654
0.002242
0.002093
0.001162
0.0007577
0.0004469
0.0004857
0.0008008
0.003419
0.003574
0.004098
0.003264
0.002266
0.0007721
0.0005939
0.0007172
0.001718
0.004406
0.008039
0.005212
0.004621
0.003165
0.001157
0.0004643
0.0001908
0.0001812
0.0003893
0.001691
0.006957
0.07119
0.7909
0.9841
0.9995
1
1
1
1
1
1
1
1
1
1
1
1
1
1
1
1
1
1
1
1
1
1
1
1
1
0.9999
0.9988
0.9915
0.9614
0.8092
0.2063
0.0593
0.02427
0.008989
0.003005
0.0009316
0.00054
0.0004315
0.0003462
0.0002098
0.0001503
0.0003051
0.0006921
0.001132
0.00165
0.003593
0.008099
0.03404
0.1392
0.5529
0.8796
0.9788
0.9971
0.9996
0.9999
1
1
1
1
1
1
1
1
1
1
1
1
1
1
1
1
1
1
1
1
1
1
1
1
1
1
1
1
1
1
1
1
1
1
1
1
1
1
1
1
1
1
1
1
1
1
1
1
1
1
1
1
1
0.9999
0.0002369
0.0002445
0.0007662
0.0004295
0.0006277
7.576e-05
4.511e-05
4.942e-05
0.0002751
0.0005525
0.001253
0.002093
0.003156
0.002844
0.001084
0.000876
0.0007392
0.001425
0.003512
0.004396
0.003385
0.002137
0.001864
0.001427
0.00131
0.001228
0.002642
0.002857
0.003818
0.004145
0.003084
0.0008923
0.000699
0.0006657
0.001492
0.003658
0.007086
0.004514
0.003858
0.002358
0.0009586
0.0005431
0.0003861
0.0005408
0.002145
0.01584
0.2484
0.9251
0.997
0.9999
1
1
1
1
1
1
1
1
1
1
1
1
1
1
1
1
1
1
1
1
1
1
1
0.9999
0.9985
0.9901
0.9415
0.6924
0.1182
0.02222
0.002469
0.0007955
0.0005009
0.0002533
8.383e-05
3.683e-05
1.08e-05
9.843e-06
1.798e-05
2.112e-05
1.453e-05
1.228e-05
2.867e-05
6.722e-05
7.959e-05
9.631e-05
9.711e-05
0.0001155
0.0003303
0.0008781
0.00142
0.004569
0.02452
0.1845
0.7602
0.9457
0.9936
0.9992
0.9998
0.9999
1
1
1
1
1
1
1
1
1
1
1
1
1
1
1
1
1
1
1
1
1
1
1
1
1
1
1
1
1
1
1
1
1
1
1
1
1
1
1
1
1
1
1
1
1
0.9998
0.9986
0.9944
0.9864
0.9581
0.0003304
0.0001867
0.0006299
0.0003517
0.0007063
0.0001024
7.597e-05
3.777e-05
0.000101
0.0002226
0.0006165
0.001326
0.003359
0.003972
0.001107
0.0007106
0.0008563
0.002354
0.002867
0.001759
0.000755
0.0006975
0.001683
0.004057
0.003682
0.001757
0.001629
0.001999
0.003158
0.003889
0.003538
0.001604
0.001439
0.0009691
0.001145
0.001308
0.001581
0.001063
0.001424
0.001224
0.0007558
0.0006895
0.001019
0.003422
0.04831
0.7037
0.9791
0.9994
1
1
1
1
1
1
1
1
1
1
1
1
1
1
1
1
1
1
1
1
1
1
1
0.9998
0.9955
0.9494
0.6927
0.1264
0.01839
0.002583
0.0004301
0.0001487
3.566e-05
2.346e-05
2.069e-05
1.529e-05
4.525e-06
3.406e-06
1.709e-06
2.405e-06
4.634e-06
7.18e-06
6.289e-06
5.902e-06
1.213e-05
2.429e-05
1.693e-05
1.16e-05
6.786e-06
6.632e-06
1.453e-05
2.309e-05
2.246e-05
4.293e-05
0.0001508
0.0008645
0.005537
0.03615
0.2207
0.7377
0.9585
0.997
0.9999
1
1
1
1
1
1
1
1
1
1
1
1
1
1
1
1
1
1
1
1
1
1
1
1
1
1
1
1
1
1
1
1
1
1
1
1
1
1
1
0.9999
0.9996
0.9985
0.9936
0.966
0.8055
0.3515
0.1001
0.07565
0.00779
0.0003975
0.0001694
0.0007326
0.0003751
0.000627
0.0001113
7.651e-05
4.05e-05
0.0001251
0.0002365
0.0003465
0.0006369
0.002163
0.003591
0.0008631
0.0005162
0.0004973
0.001321
0.001355
0.001085
0.0003046
0.0002893
0.0007236
0.003856
0.004378
0.002308
0.001883
0.002123
0.003385
0.003907
0.003965
0.003006
0.00339
0.002417
0.001753
0.0008847
0.0005295
0.0003415
0.0006132
0.0009187
0.00136
0.002326
0.01027
0.1044
0.8882
0.9939
0.9998
1
1
1
1
1
1
1
1
1
1
1
1
1
1
1
1
1
1
1
1
1
0.9999
0.9991
0.9848
0.8952
0.1594
0.01409
0.002818
0.001128
0.0003056
7.581e-05
1.905e-05
7.644e-06
4.387e-06
6.366e-06
8.75e-06
1.248e-05
6.872e-06