/*--------------------------------*- C++ -*----------------------------------*\
| =========                 |                                                 |
| \\      /  F ield         | OpenFOAM: The Open Source CFD Toolbox           |
|  \\    /   O peration     | Version:  5.x                                   |
|   \\  /    A nd           | Web:      www.OpenFOAM.org                      |
|    \\/     M anipulation  |                                                 |
\*---------------------------------------------------------------------------*/
FoamFile
{
    version     2.0;
    format      ascii;
    class       volScalarField;
    location    "190";
    object      gamma;
}
// * * * * * * * * * * * * * * * * * * * * * * * * * * * * * * * * * * * * * //

dimensions      [0 0 0 0 0 0 0];

internalField   nonuniform List<scalar> 
86400
(
4.632e-08
6.161e-08
1.11e-07
2.573e-07
7.225e-07
1.341e-06
1.662e-06
1.912e-06
2.243e-06
2.028e-06
2.98e-06
3.395e-06
3.432e-06
2.102e-06
1.409e-06
1.405e-06
3.938e-06
1.273e-05
2.664e-05
3.47e-05
3.784e-05
5.247e-05
0.0001252
0.000192
0.0002341
0.0003939
0.0004009
0.0004607
0.0004833
0.0004211
0.0003378
0.0002893
0.0002992
0.0003327
0.0004644
0.0007216
0.001002
0.001313
0.001286
0.001486
0.001418
0.001409
0.001164
0.0007879
0.0007349
0.001034
0.001859
0.002833
0.003986
0.003393
0.003234
0.003377
0.003709
0.004386
0.005166
0.006918
0.009447
0.01053
0.009889
0.008711
0.006609
0.006508
0.006432
0.007219
0.009855
0.0143
0.01512
0.01452
0.009949
0.008334
0.01027
0.01631
0.01927
0.01641
0.01376
0.01178
0.009738
0.01113
0.01387
0.01284
0.01224
0.01019
0.009241
0.01061
0.01538
0.01735
0.01831
0.0161
0.01643
0.01628
0.01258
0.01255
0.01341
0.01869
0.02184
0.02402
0.01901
0.01767
0.01728
0.01619
0.01433
0.009815
0.006552
0.003794
0.002334
0.002496
0.004201
0.007039
0.005489
0.002954
0.001265
0.0008209
0.0009122
0.00121
0.001244
0.001108
0.0009647
0.0008487
0.0008079
0.0007911
0.0007748
0.0007456
0.0006343
0.0004788
0.0003722
0.0003194
0.0002756
0.0002642
0.0002453
0.0002108
0.0001655
0.0001763
0.0001435
8.917e-05
5.836e-05
4.352e-05
5.125e-05
9.231e-05
6.213e-05
1.883e-05
6.09e-06
2.825e-06
2.705e-06
1.817e-06
3.658e-07
4.165e-08
5.44e-09
4.723e-10
1.228e-10
1.163e-10
1.826e-10
9.659e-10
1.51e-08
1.275e-07
1.466e-06
1.003e-05
3.653e-05
0.0001254
0.06905
0.9995
6.41e-08
6.955e-08
1.102e-07
2.177e-07
6.356e-07
1.191e-06
1.409e-06
1.338e-06
1.029e-06
7.431e-07
1.082e-06
1.587e-06
2.674e-06
3.325e-06
2.644e-06
1.817e-06
4.06e-06
1.262e-05
3.344e-05
8.771e-05
0.0001178
0.0001423
0.000218
0.0003066
0.0003769
0.0004986
0.0005547
0.0006558
0.0007978
0.00061
0.0004983
0.0004438
0.0005047
0.0006082
0.0009281
0.001475
0.002374
0.003611
0.004312
0.004955
0.004129
0.003308
0.002685
0.001893
0.001424
0.001734
0.0025
0.00365
0.005774
0.006416
0.006845
0.008042
0.01007
0.01223
0.0101
0.007806
0.006129
0.004643
0.003629
0.003672
0.003178
0.003065
0.002757
0.002679
0.003043
0.005085
0.006273
0.007406
0.006309
0.006712
0.009365
0.01402
0.01078
0.006839
0.004027
0.003937
0.00581
0.01091
0.01606
0.01539
0.01321
0.01073
0.01157
0.01424
0.02263
0.02769
0.03225
0.02992
0.03358
0.03869
0.03744
0.04005
0.03989
0.03682
0.03131
0.02546
0.0177
0.01475
0.01347
0.01183
0.0117
0.01182
0.01312
0.01161
0.007455
0.005911
0.007091
0.009267
0.008196
0.005114
0.002038
0.001166
0.0008354
0.0007208
0.000595
0.0006012
0.0008496
0.001532
0.00251
0.002842
0.002839
0.002694
0.002224
0.00164
0.001292
0.00114
0.0009939
0.0009677
0.0008707
0.0007242
0.0005691
0.0004649
0.0002905
0.0001879
0.0001458
0.0001099
0.0001167
0.000139
8.181e-05
2.194e-05
8.859e-06
3.147e-06
1.601e-06
8.033e-07
1.755e-07
3.324e-08
8.212e-09
2.383e-09
3.116e-09
6.392e-09
1.933e-08
8.147e-08
6.496e-07
4.252e-06
6.396e-05
0.00111
0.02515
0.6952
0.9808
0.9999
1.121e-07
1.08e-07
1.503e-07
2.409e-07
6.305e-07
1.062e-06
1.112e-06
9.089e-07
5.382e-07
4.539e-07
7.198e-07
1.67e-06
3.333e-06
6.088e-06
4.743e-06
4.06e-06
1.075e-05
3.687e-05
7.126e-05
0.0001711
0.0001573
0.0001665
0.000257
0.0004048
0.0004213
0.0006408
0.0008574
0.001219
0.001759
0.001467
0.00112
0.001236
0.001396
0.001413
0.001484
0.001606
0.002116
0.003028
0.00276
0.002675
0.001911
0.001635
0.001356
0.001262
0.001094
0.001598
0.003011
0.005148
0.008846
0.01135
0.009294
0.006897
0.005392
0.004613
0.00318
0.002951
0.002455
0.001774
0.001298
0.001341
0.001353
0.001506
0.001664
0.002136
0.002142
0.0027
0.003123
0.003798
0.003483
0.004463
0.00596
0.006317
0.003644
0.002658
0.002291
0.004046
0.009713
0.02114
0.02964
0.03111
0.02625
0.01929
0.02027
0.02438
0.0422
0.05101
0.06028
0.05956
0.05301
0.04284
0.02947
0.02062
0.01371
0.01347
0.01311
0.0129
0.01225
0.01257
0.01103
0.009938
0.01113
0.01419
0.02001
0.02097
0.01657
0.0138
0.01224
0.01391
0.01222
0.007937
0.004312
0.003341
0.002021
0.001475
0.001168
0.001302
0.001683
0.002491
0.003005
0.002364
0.001953
0.001994
0.00172
0.001327
0.001039
0.0008711
0.0007091
0.0006454
0.0005411
0.0004885
0.0004501
0.0003631
0.0002008
9.789e-05
6.633e-05
5.41e-05
8.14e-05
0.0001241
9.95e-05
3.637e-05
1.216e-05
3.931e-06
2.229e-06
1.274e-06
4.653e-07
1.294e-07
4.7e-08
2.694e-08
7.038e-08
2.332e-07
9.451e-07
3.271e-06
2.44e-05
0.0002108
0.004017
0.1442
0.9113
0.997
0.9999
1
2.074e-07
1.933e-07
2.115e-07
2.571e-07
5.307e-07
7.249e-07
5.975e-07
4.139e-07
2.582e-07
3.206e-07
4.689e-07
5.952e-07
6.384e-07
1.85e-06
2.358e-06
4.083e-06
1.16e-05
1.975e-05
1.684e-05
1.988e-05
1.434e-05
1.02e-05
2.353e-05
5e-05
5.41e-05
0.0001043
0.0002078
0.0003714
0.0007355
0.0008814
0.0006954
0.001056
0.001538
0.001829
0.001879
0.001863
0.002042
0.002863
0.002129
0.001963
0.001586
0.001541
0.001881
0.002342
0.001526
0.001483
0.001457
0.001744
0.002535
0.003777
0.002714
0.001738
0.001482
0.00139
0.0009924
0.0009581
0.000713
0.0005063
0.0004446
0.0006122
0.0007602
0.001068
0.001421
0.001639
0.001487
0.001789
0.001846
0.002054
0.002014
0.00341
0.005947
0.00616
0.004072
0.003494
0.002559
0.005073
0.0122
0.02182
0.02193
0.02374
0.01918
0.01513
0.01508
0.01534
0.01837
0.01968
0.02268
0.02385
0.02561
0.02937
0.03249
0.03145
0.02186
0.02052
0.01783
0.01647
0.01671
0.0187
0.01635
0.01645
0.01651
0.01695
0.02557
0.02782
0.01989
0.01519
0.009526
0.009067
0.008296
0.007273
0.003993
0.00358
0.001944
0.001265
0.0009295
0.001283
0.002262
0.004131
0.005136
0.003821
0.002845
0.002983
0.002694
0.002203
0.001785
0.001505
0.001208
0.001083
0.0009586
0.0009349
0.000957
0.0008026
0.0004361
0.0002129
0.0001291
6.247e-05
4.977e-05
3.394e-05
1.784e-05
8.437e-06
3.121e-06
1.095e-06
8.129e-07
8.066e-07
6.417e-07
4.085e-07
3.68e-07
4.87e-07
3.269e-06
2.057e-05
0.0001539
0.0007327
0.00527
0.06021
0.7492
0.9832
0.9996
1
1
1
4.857e-07
5.326e-07
5.112e-07
5.396e-07
7.11e-07
6.09e-07
2.915e-07
2.204e-07
1.87e-07
3.224e-07
3.789e-07
2.218e-07
1.004e-07
3.134e-07
6.142e-07
3.343e-06
2.119e-05
1.413e-05
2.925e-06
1.86e-06
1.555e-06
1.26e-06
5.594e-06
1.291e-05
1.659e-05
5.273e-05
0.0002061
0.0007897
0.002069
0.00205
0.0007542
0.0006478
0.0006209
0.0006678
0.0007292
0.0007126
0.0005934
0.00096
0.001064
0.001622
0.001297
0.0009484
0.0004171
0.0002385
9.75e-05
8.601e-05
7.252e-05
0.0001008
0.0002252
0.0006686
0.0008339
0.0008721
0.0007631
0.0008341
0.0007071
0.000773
0.0006556
0.0005059
0.0006362
0.001189
0.001993
0.003301
0.005242
0.006068
0.003858
0.002529
0.001918
0.001605
0.001378
0.002132
0.003723
0.003316
0.00319
0.004006
0.004489
0.007081
0.01354
0.01369
0.0105
0.01248
0.01062
0.008494
0.008864
0.01024
0.01385
0.01853
0.02273
0.02182
0.02045
0.02122
0.02052
0.02479
0.01959
0.01859
0.01437
0.01435
0.01005
0.01063
0.01055
0.00928
0.005912
0.002941
0.002364
0.002723
0.003382
0.006695
0.007839
0.006759
0.00579
0.008409
0.005914
0.006418
0.004011
0.0029
0.00199
0.001889
0.001728
0.001809
0.001347
0.001054
0.0007861
0.0008558
0.0008065
0.0007318
0.0006568
0.0005899
0.0004891
0.0004538
0.0004336
0.0004723
0.0005234
0.0003851
0.0001604
5.423e-05
1.127e-05
2.872e-06
1.824e-06
2.189e-06
1.671e-06
1.419e-06
7.631e-07
4.929e-07
6.298e-07
1.333e-06
2.826e-06
5.036e-06
1.069e-05
2.925e-05
0.0002472
0.001556
0.01234
0.07676
0.5826
0.9505
0.9973
0.9999
1
1
1
1
7.726e-07
1.154e-06
1.097e-06
1.154e-06
7.943e-07
4.433e-07
1.627e-07
1.468e-07
2.095e-07
6.114e-07
7.616e-07
2.05e-07
4.402e-08
8.735e-08
5.307e-07
4.433e-06
2.269e-05
8.622e-06
1.416e-06
1.078e-06
1.885e-06
2.386e-06
1.409e-05
8.725e-06
4.303e-06
5.809e-06
1.907e-05
9.034e-05
0.0005542
0.0005453
0.0001593
0.0001043
9.4e-05
0.0001133
0.0002299
0.0002921
0.0001726
0.0001975
0.0002245
0.0002119
9.175e-05
4.177e-05
8.594e-06
2.738e-06
1.01e-06
3.649e-07
6.608e-08
6.52e-08
1.653e-07
8.991e-07
2.346e-06
7.15e-06
1.752e-05
3.484e-05
4.758e-05
4.55e-05
3.19e-05
3.723e-05
0.0001546
0.0007445
0.002513
0.003939
0.003172
0.002459
0.001362
0.0008778
0.001514
0.002263
0.00234
0.003894
0.007164
0.005424
0.004786
0.004693
0.003214
0.002713
0.001712
0.001165
0.0009769
0.001814
0.003304
0.008178
0.01341
0.01807
0.02152
0.02307
0.02155
0.01983
0.02236
0.03169
0.02822
0.0123
0.002656
0.0006955
0.0001963
0.0001345
7.165e-05
8.188e-05
9.144e-05
0.0001703
0.0002516
0.0002715
0.0002275
0.0002222
0.0002408
0.000585
0.0008525
0.001529
0.002285
0.002364
0.001348
0.00138
0.001093
0.001081
0.0008758
0.0007886
0.0006578
0.0006277
0.0005151
0.0004512
0.0003373
0.0003355
0.0003105
0.0003001
0.000283
0.0002405
0.0001867
0.0001378
9.252e-05
5.439e-05
4.266e-05
3.509e-05
2.621e-05
1.897e-05
6.457e-06
1.634e-06
7.023e-07
6.844e-07
6.85e-07
1.042e-06
8.677e-07
1.03e-06
2.147e-06
8.911e-06
4.128e-05
0.0001569
0.0006111
0.00284
0.01917
0.1298
0.7643
0.9608
0.996
0.9999
1
1
1
1
1
1
9.034e-07
1.828e-06
1.546e-06
1.33e-06
6.952e-07
3.554e-07
1.291e-07
2.17e-07
7.857e-07
3.259e-06
3.374e-06
6.302e-07
4.687e-08
5.147e-08
1.524e-07
2.115e-06
2.055e-05
2.259e-05
6.904e-06
7.452e-06
1.816e-05
2.172e-05
7.948e-05
1.634e-05
4.618e-06
3.154e-06
7.508e-06
2.782e-05
0.0002521
0.000275
8.26e-05
3.297e-05
3.238e-05
5.478e-05
0.0001327
0.0001475
5.203e-05
4.017e-05
6.762e-05
6.943e-05
1.914e-05
3.746e-06
2.486e-07
3.31e-08
1.042e-08
1.3e-09
9.689e-11
6.59e-11
1.682e-10
1.637e-09
8.172e-09
3.805e-08
1.464e-07
4.853e-07
9.542e-07
1.06e-06
1.009e-06
2.198e-06
2.727e-05
0.0002446
0.001643
0.003619
0.002993
0.003069
0.003099
0.002192
0.004895
0.008091
0.007627
0.007027
0.01051
0.003662
0.001434
0.0008503
0.0006196
0.0007325
0.0003803
0.0001809
6.2e-05
5.961e-05
0.0001321
0.001006
0.003277
0.003775
0.003391
0.002391
0.002053
0.003263
0.01164
0.03603
0.02468
0.008697
0.001428
0.0002869
6.286e-05
4.049e-05
1.199e-05
8.867e-06
5.967e-06
1.83e-05
5.027e-05
8.055e-05
8.324e-05
3.938e-05
1.635e-05
1.39e-05
1.429e-05
2.02e-05
8.489e-05
0.0001743
0.0002911
0.0005638
0.0006673
0.0009003
0.0009523
0.0008656
0.0005445
0.0004087
0.0002877
0.0003083
0.0002893
0.0002545
0.0001733
9.182e-05
5.028e-05
3.372e-05
2.948e-05
2.751e-05
2.326e-05
1.163e-05
7.962e-06
8.125e-06
1.003e-05
1.213e-05
6.951e-06
2.621e-06
1.986e-06
4.248e-06
8.934e-06
3.06e-05
6.201e-05
0.0001229
0.0003344
0.001526
0.006658
0.02961
0.146
0.6611
0.9294
0.9884
0.999
0.9999
1
1
1
1
1
1
1
1
1.57e-06
3e-06
1.816e-06
1.328e-06
7.642e-07
4.418e-07
2.557e-07
9.467e-07
3.156e-06
6.1e-06
6.054e-06
8.996e-07
6.158e-08
5.29e-08
1.27e-07
1.269e-06
1.413e-05
4.499e-05
6.864e-05
0.0002584
0.0005166
0.0004678
0.0008255
0.0001711
3.268e-05
6.263e-06
9.346e-06
2.028e-05
0.0001427
0.0002138
0.0001033
8.562e-05
8.545e-05
0.0001431
0.0002568
0.0002324
7.665e-05
7.513e-05
0.0002032
9.441e-05
1.373e-05
9.573e-07
5.563e-08
4.406e-09
1.677e-09
9.91e-11
4.437e-12
2.378e-12
7.005e-12
8.168e-11
6.13e-10
5.344e-09
4.85e-08
3.186e-07
6.427e-07
2.48e-07
9.255e-08
1.175e-07
1.39e-06
1.986e-05
0.0003441
0.001712
0.002222
0.003107
0.004186
0.00353
0.00697
0.006967
0.003011
0.0007717
0.0004524
0.0001441
4.492e-05
2.416e-05
2.932e-05
4.299e-05
2.947e-05
5.215e-05
3.125e-05
5.664e-05
0.0001824
0.002988
0.01483
0.0244
0.01593
0.01495
0.07588
0.6667
0.9593
0.9889
0.9817
0.9303
0.625
0.05722
0.01283
0.005333
0.0006456
0.0001931
5.554e-05
5.967e-05
7.66e-05
0.0001949
6.285e-05
5.464e-06
5.206e-07
2.252e-07
5.091e-07
1.602e-06
9.196e-06
8.517e-06
1.153e-05
1.76e-05
2.982e-05
5.685e-05
6.184e-05
5.344e-05
5.463e-05
5.587e-05
5.421e-05
0.0001035
0.0001826
0.0002568
0.0002274
0.0001136
4.786e-05
2.949e-05
2.903e-05
3.152e-05
3.172e-05
1.545e-05
1.004e-05
1.042e-05
2.696e-05
6.822e-05
0.0001044
7.71e-05
7.441e-05
0.0001304
0.0003603
0.001805
0.006617
0.02219
0.07742
0.3393
0.7969
0.9603
0.9927
0.9991
0.9999
1
1
1
1
1
1
1
1
1
1
1
2.622e-06
3.493e-06
1.643e-06
1.066e-06
6.527e-07
5.233e-07
7.578e-07
2.436e-06
4.354e-06
5.185e-06
2.671e-06
5.733e-07
1.436e-07
1.581e-07
4.031e-07
2.082e-06
7.33e-06
2.66e-05
6.976e-05
0.0001112
0.0002377
0.0004399
0.001485
0.001048
0.0003971
0.0001123
5.096e-05
6.937e-05
0.0002203
0.0003751
0.0002727
0.0004224
0.0003619
0.0004879
0.0004
0.0001793
3.498e-05
5.415e-05
0.0001399
2.68e-05
2.415e-06
1.275e-07
1.111e-08
1.513e-09
1.502e-09
2.015e-10
2.551e-11
1.639e-11
4.378e-11
9.977e-11
3.522e-10
1.613e-09
1.008e-08
5.729e-08
1.343e-07
6.433e-08
1.95e-08
1.899e-08
1.359e-07
2.51e-06
0.0001022
0.001197
0.003642
0.006076
0.00515
0.001633
0.000976
0.0004215
0.0001096
2.214e-05
1.276e-05
6.388e-06
2.941e-06
2.36e-06
1.229e-05
0.0001153
0.0003794
0.002657
0.00528
0.0143
0.1337
0.856
0.9684
0.9864
0.9894
0.9944
0.9986
0.9997
1
1
0.9999
0.9992
0.9969
0.9916
0.991
0.986
0.94
0.671
0.06367
0.01721
0.0106
0.01202
0.001878
6.243e-05
4.321e-06
4.495e-07
2.898e-07
4.262e-07
1.045e-06
2.802e-07
2.143e-07
1.512e-07
2.009e-07
5.663e-07
2.415e-06
1.009e-05
2.323e-05
2.242e-05
1.554e-05
1.531e-05
2.466e-05
5.408e-05
7.324e-05
4.838e-05
2.175e-05
1.224e-05
1.468e-05
2.45e-05
3.906e-05
3.411e-05
3.901e-05
7.089e-05
0.0002202
0.0008291
0.002875
0.005986
0.0135
0.04198
0.1927
0.728
0.9278
0.9816
0.9944
0.9981
0.9996
1
1
1
1
1
1
1
1
1
1
1
1
1
1
1
2.042e-06
2.04e-06
1.136e-06
8.343e-07
7.654e-07
1.056e-06
1.427e-06
2.435e-06
2.558e-06
2.152e-06
7.398e-07
3.231e-07
2.616e-07
4.615e-07
1.674e-06
4.655e-06
1.824e-05
2.363e-05
3.465e-05
1.845e-05
2.845e-05
8.205e-05
0.0004864
0.001359
0.001256
0.0004423
0.0001051
0.0001254
0.0001735
0.0004534
0.0008431
0.002432
0.002329
0.002503
0.0006604
0.000182
6.331e-05
0.0001189
0.0001095
7.921e-06
4.663e-07
2.282e-08
4.355e-09
2.204e-09
3.343e-09
8.873e-10
4.753e-10
5.752e-10
5.967e-10
3.614e-10
3.32e-10
4.439e-10
3.227e-09
3.328e-08
1.079e-07
8.16e-08
4.159e-08
3.369e-08
1.261e-07
2.159e-06
6.139e-05
0.0009422
0.002189
0.002138
0.0007567
0.000115
2.469e-05
1.117e-05
5.755e-06
2.972e-06
5.118e-06
9.956e-06
2.933e-05
0.0001212
0.001024
0.009388
0.05529
0.5882
0.8959
0.9752
0.9966
0.9997
0.9999
1
1
1
1
1
1
1
1
1
1
1
1
1
1
0.9998
0.9984
0.9921
0.9753
0.9452
0.7495
0.04375
0.001159
8.718e-05
1.802e-05
9.806e-06
6.234e-06
3.407e-07
3.492e-08
6.89e-09
4.397e-09
4.579e-09
4.013e-08
5.238e-07
2.368e-06
4.804e-06
5.636e-06
4.098e-06
8.32e-06
4.654e-05
0.000119
0.0001863
0.0002053
0.0002143
0.0004058
0.0009945
0.002527
0.003752
0.006062
0.01171
0.03178
0.1627
0.7063
0.9158
0.9767
0.9924
0.9974
0.9994
0.9999
1
1
1
1
1
1
1
1
1
1
1
1
1
1
1
1
1
1
1
1.693e-06
1.292e-06
9.801e-07
1.224e-06
1.99e-06
1.415e-06
6.075e-07
4.047e-07
2.466e-07
2.383e-07
2.043e-07
2.057e-07
5.924e-07
2.621e-06
6.838e-06
1.951e-05
3.72e-05
1.612e-05
1.257e-05
3.558e-06
5.112e-06
1.061e-05
0.0001203
0.0008138
0.001813
0.001202
0.0008801
0.0007181
0.0004755
0.0008272
0.0009876
0.001459
0.0009047
0.0006502
0.0001862
6.082e-05
4.428e-05
0.0001746
0.0001019
8.834e-06
3.101e-07
2.187e-08
2.549e-09
1.234e-09
1.068e-09
1.328e-09
9.858e-09
3.976e-08
4.304e-08
7.099e-09
6.975e-10
2.178e-10
1.612e-09
4.615e-08
5.331e-07
1.986e-06
1.998e-06
1.193e-06
2.144e-06
2.189e-05
0.0001785
0.0006276
0.0005284
0.0002131
3.955e-05
7.971e-06
2.654e-06
3.467e-06
8.017e-06
2.234e-05
0.0001004
0.001319
0.009296
0.08664
0.7818
0.9682
0.9954
0.9993
0.9999
1
1
1
1
1
1
1
1
1
1
1
1
1
1
1
1
1
1
1
1
1
1
0.9999
0.9995
0.9965
0.977
0.8189
0.09767
0.009197
0.001283
5.528e-05
2.767e-06
1.983e-07
5.855e-08
4.237e-08
4.177e-07
5.545e-06
2.187e-05
3.584e-05
4.563e-05
2.651e-05
5.1e-05
0.0003108
0.001242
0.003657
0.007802
0.01026
0.01441
0.03301
0.1545
0.6839
0.9323
0.9822
0.9939
0.9979
0.9995
0.9999
1
1
1
1
1
1
1
1
1
1
1
1
1
1
1
1
1
1
1
1
1
1
1
1
1.516e-06
1.12e-06
1.117e-06
1.869e-06
3.44e-06
2.346e-06
4.691e-07
1.648e-07
5.41e-08
1.151e-07
1.633e-07
8.911e-07
4.445e-06
1.106e-05
2.631e-05
8.518e-05
7.903e-05
4.415e-05
2.3e-05
5.548e-06
7.786e-06
2.092e-05
0.0001952
0.0007931
0.001724
0.001491
0.002212
0.001887
0.001767
0.002017
0.002068
0.001677
0.0007182
0.0002645
0.0001455
7.527e-05
9.232e-05
0.0004364
0.0001216
7.85e-06
2.123e-07
7.661e-09
5.345e-10
2.884e-10
1.381e-10
4.435e-10
7.31e-09
1.171e-07
1.405e-07
2.011e-08
8.608e-10
2.735e-10
3.045e-09
1.947e-07
4.842e-06
2.149e-05
3.158e-05
2.645e-05
2.696e-05
6.015e-05
4.733e-05
2.501e-05
9.458e-06
4.22e-06
1.661e-06
2.62e-06
7.572e-06
5.801e-05
0.0007089
0.007656
0.08555
0.8146
0.9744
0.9962
0.9996
0.9999
1
1
1
1
1
1
1
1
1
1
1
1
1
1
1
1
1
1
1
1
1
1
1
1
1
1
1
1
1
0.9998
0.9986
0.995
0.9724
0.7972
0.08183
0.006467
0.002303
0.001911
0.006213
0.02002
0.02126
0.01743
0.0169
0.008758
0.009186
0.02211
0.07217
0.5475
0.9033
0.9764
0.9926
0.9962
0.9984
0.9995
0.9999
1
1
1
1
1
1
1
1
1
1
1
1
1
1
1
1
1
1
1
1
1
1
1
1
1
1
1
1
1
6.513e-07
6.121e-07
7.14e-07
1.17e-06
3.156e-06
2.707e-06
4.657e-07
1.517e-07
1.232e-07
3.035e-07
9.25e-07
7.844e-06
1.925e-05
4.163e-05
6.995e-05
0.000109
9.517e-05
7.259e-05
3.65e-05
1.185e-05
1.59e-05
4.008e-05
0.0002129
0.0004956
0.001149
0.001328
0.003668
0.003982
0.005359
0.004524
0.005387
0.003312
0.001762
0.0008935
0.000464
0.0002742
0.0003655
0.001137
0.000185
1.575e-05
5.999e-07
2.398e-08
8.897e-10
5.602e-10
2.315e-10
1.234e-09
3.83e-08
1.267e-06
1.196e-06
2.176e-07
4.694e-09
8.716e-10
4.9e-09
2.703e-07
4.667e-06
2.44e-05
4.487e-05
4.112e-05
3.538e-05
2.763e-05
8.823e-06
2.55e-06
8.898e-07
1.378e-06
5.495e-06
6.224e-05
0.001176
0.03657
0.679
0.9563
0.9937
0.9994
0.9999
1
1
1
1
1
1
1
1
1
1
1
1
1
1
1
1
1
1
1
1
1
1
1
1
1
1
1
1
1
1
1
1
1
1
1
0.9999
0.9997
0.999
0.998
0.9976
0.997
0.9977
0.9982
0.997
0.9967
0.9972
0.9964
0.9966
0.9972
0.998
0.9994
0.9999
1
1
1
1
1
1
1
1
1
1
1
1
1
1
1
1
1
1
1
1
1
1
1
1
1
1
1
1
1
1
1
1
1
1
1
7.567e-07
6.473e-07
8.501e-07
1.123e-06
3.072e-06
4.508e-06
1.301e-06
8.415e-07
6.303e-07
1.642e-06
5.001e-06
3.018e-05
4.034e-05
5.885e-05
5.503e-05
6.48e-05
7.154e-05
6.877e-05
5.233e-05
4.723e-05
8.644e-05
0.0001789
0.0003702
0.0004184
0.0004885
0.0004769
0.001604
0.001933
0.003725
0.005787
0.00865
0.007138
0.006255
0.002937
0.001094
0.0004354
0.0003332
0.0007399
0.0002943
8.837e-05
7.964e-06
5.744e-07
2.99e-08
1.966e-08
1.029e-08
5.75e-08
8.734e-07
2.349e-05
3.166e-05
1.102e-05
3.909e-07
1.041e-07
2.807e-07
2.892e-06
1.833e-05
2.699e-05
1.988e-05
1.301e-05
7.24e-06
4.254e-06
2.607e-06
1.891e-06
5.141e-06
6.14e-05
0.001618
0.06171
0.8425
0.9855
0.9983
0.9998
1
1
1
1
1
1
1
1
1
1
1
1
1
1
1
1
1
1
1
1
1
1
1
1
1
1
1
1
1
1
1
1
1
1
1
1
1
1
1
1
1
1
1
1
1
1
1
1
1
1
1
1
1
1
1
1
1
1
1
1
1
1
1
1
1
1
1
1
1
1
1
1
1
1
1
1
1
1
1
1
1
1
1
1
1
1
1
1
1
1
1.789e-06
1.449e-06
2.39e-06
1.237e-06
2.191e-06
1.74e-06
1.088e-06
2.451e-06
5.946e-06
5.375e-06
7.722e-06
1.614e-05
2.589e-05
3.692e-05
4.386e-05
2.142e-05
4.813e-06
1.293e-06
5.582e-07
4.659e-07
1.663e-06
8.485e-06
4.627e-05
0.0001191
0.000214
0.0002396
0.000559
0.0005675
0.0008331
0.001025
0.001661
0.002859
0.005354
0.003688
0.001236
0.0003625
0.0001988
0.000481
0.0004746
0.0004668
0.0001554
2.801e-05
3.374e-06
2.642e-06
1.512e-06
8.876e-06
5.301e-05
0.0005789
0.0009093
0.0005034
5.527e-05
1.24e-05
1.026e-05
1.527e-05
2.748e-05
1.219e-05
5.99e-06
3.045e-06
3.073e-06
4.891e-06
1.969e-05
9.314e-05
0.001552
0.07331
0.8685
0.9869
0.9991
0.9999
1
1
1
1
1
1
1
1
1
1
1
1
1
1
1
1
1
1
1
1
1
1
1
1
1
1
1
1
1
1
1
1
1
1
1
1
1
1
1
1
1
1
1
1
1
1
1
1
1
1
1
1
1
1
1
1
1
1
1
1
1
1
1
1
1
1
1
1
1
1
1
1
1
1
1
1
1
1
1
1
1
1
1
1
1
1
1
1
1
1
1
1
5.462e-06
4.996e-06
1.065e-05
2.404e-06
1.818e-06
1.272e-06
1.884e-06
9.869e-06
3.128e-05
1.497e-05
8.947e-06
6.118e-06
4.887e-06
2.174e-05
1.478e-05
1.606e-06
1.804e-07
2.263e-08
8.277e-09
7.065e-09
5.34e-08
1.022e-06
1.419e-05
8.313e-05
0.0003078
0.0003088
0.0005431
0.0006587
0.0006343
0.0006708
0.001218
0.003074
0.007845
0.008143
0.002732
0.000624
0.0003332
0.0005789
0.0008919
0.001641
0.00171
0.0007613
0.0002551
0.000281
0.0001842
0.0002114
0.0003313
0.001041
0.002501
0.004233
0.002362
0.0006754
0.0003287
8.956e-05
5.275e-05
1.204e-05
7.077e-06
6.25e-06
3.123e-05
0.0001218
0.00327
0.07277
0.8372
0.9861
0.9992
0.9999
1
1
1
1
1
1
1
1
1
1
1
1
1
1
1
1
1
1
1
1
1
1
1
1
1
1
1
1
1
1
1
1
1
1
1
1
1
1
1
1
1
1
1
1
1
1
1
1
1
1
1
1
1
1
1
1
1
1
1
1
1
1
1
1
1
1
1
1
1
1
1
1
1
1
1
1
1
1
1
1
1
1
1
1
1
1
1
1
1
1
1
1
1
1
1.155e-05
1.25e-05
5.015e-05
1.011e-05
2.057e-06
9.26e-07
2.589e-06
1.479e-05
5.032e-05
2.643e-05
8.107e-06
4.452e-06
6.065e-06
4.007e-05
5.894e-06
1.901e-07
1.746e-08
2.519e-09
1.742e-09
1.666e-09
1.813e-08
4.233e-07
8.22e-06
7.904e-05
0.0006873
0.0005183
0.001025
0.001173
0.0006622
0.0004695
0.0005822
0.001675
0.005106
0.006616
0.002925
0.001105
0.001019
0.00134
0.002464
0.003596
0.004508
0.003689
0.003221
0.00252
0.001457
0.0007181
0.0005444
0.0009229
0.002344
0.004257
0.002492
0.000786
0.0003472
9.573e-05
7.331e-05
3.685e-05
5.995e-05
0.0002355
0.003531
0.07429
0.8482
0.9843
0.9992
1
1
1
1
1
1
1
1
1
1
1
1
1
1
1
1
1
1
1
1
1
1
1
1
1
1
1
1
1
1
1
1
1
1
1
1
1
1
1
1
1
1
1
1
1
1
1
1
1
1
1
1
1
1
1
1
1
1
1
1
1
1
1
1
1
1
1
1
1
1
1
1
1
1
1
1
1
1
1
1
1
1
1
1
1
1
1
1
1
1
1
1
1
1
1
1
1
1.801e-05
2.469e-05
7.485e-05
1.827e-05
2.666e-06
3.039e-06
7.641e-06
5.063e-05
7.724e-05
3.297e-05
6.768e-06
2.954e-06
4.441e-06
2.042e-05
8.109e-07
3.977e-08
8.825e-09
4.285e-09
6.992e-09
7.757e-09
5.503e-08
5.236e-07
1.065e-05
8.236e-05
0.000797
0.0006501
0.00122
0.001704
0.001308
0.001139
0.001109
0.002109
0.00536
0.006292
0.003195
0.001878
0.002447
0.002878
0.003595
0.0035
0.004736
0.005759
0.01173
0.01155
0.006726
0.001996
0.0006589
0.0004142
0.0006756
0.001301
0.000942
0.0005296
0.0003869
0.0001976
0.00023
0.000684
0.005419
0.06222
0.8227
0.9846
0.9989
0.9999
1
1
1
1
1
1
1
1
1
1
1
1
1
1
1
1
1
1
1
1
1
1
1
1
1
1
1
1
1
1
1
1
1
1
1
1
1
1
1
1
1
1
1
1
1
1
1
1
1
1
1
1
1
1
1
1
1
1
1
1
1
1
1
1
1
1
1
1
1
1
1
1
1
1
1
1
1
1
1
1
1
1
1
1
1
1
1
1
1
1
1
1
1
1
1
1
1
1
1.355e-05
2.38e-05
4.857e-05
1.407e-05
1.795e-06
4.717e-06
2.225e-05
0.0002184
0.0002183
7.373e-05
1.37e-05
4.081e-06
2.968e-06
6.908e-06
2.741e-07
2.724e-08
3.78e-08
8.973e-08
2.476e-07
2.765e-07
9.55e-07
3.615e-06
5.33e-05
0.0003168
0.002243
0.001683
0.002629
0.002789
0.002032
0.001324
0.00139
0.002501
0.006372
0.008392
0.005065
0.003631
0.00556
0.00704
0.006184
0.00307
0.002213
0.001927
0.004373
0.006061
0.004696
0.001828
0.0008994
0.0002313
0.000129
0.0001559
0.0001175
0.0001474
0.0003919
0.0007155
0.002315
0.02705
0.659
0.9673
0.9984
0.9999
1
1
1
1
1
1
1
1
1
1
1
1
1
1
1
1
1
1
1
1
1
1
1
1
1
1
1
1
1
1
1
1
1
1
1
1
1
1
1
1
1
1
1
1
1
1
1
1
1
1
1
1
1
1
1
1
1
1
1
1
1
1
1
1
1
1
1
1
1
1
1
1
1
1
1
1
1
1
1
1
1
1
1
1
1
1
1
1
1
1
1
1
1
1
1
1
1
1
1
1
1.978e-05
2.458e-05
3.559e-05
1.457e-05
2.457e-06
1.611e-05
6.779e-05
0.0004325
0.0003733
0.0001783
4.188e-05
1.587e-05
7.905e-06
8.686e-06
6.457e-07
1.888e-07
9.024e-07
3.752e-06
1.049e-05
1.049e-05
2.355e-05
4.336e-05
0.0001843
0.0006861
0.002105
0.001942
0.00226
0.002642
0.002315
0.001651
0.001737
0.003372
0.009546
0.01472
0.00949
0.005756
0.005719
0.004671
0.002993
0.001227
0.000506
0.0003988
0.000722
0.001762
0.003039
0.002622
0.001804
0.0003208
0.0001206
6.552e-05
8.094e-05
0.000142
0.001281
0.005306
0.1437
0.9117
0.9947
0.9997
1
1
1
1
1
1
1
1
1
1
1
1
1
1
1
1
1
1
1
1
1
1
1
1
1
1
1
1
1
1
1
1
1
1
1
1
1
1
1
1
1
1
1
1
1
1
1
1
1
1
1
1
1
1
1
1
1
1
1
1
1
1
1
1
1
1
1
1
1
1
1
1
1
1
1
1
1
1
1
1
1
1
1
1
1
1
1
1
1
1
1
1
1
1
1
1
1
1
1
1
1
1
4.38e-05
4.501e-05
6.118e-05
1.789e-05
4.593e-06
2.433e-05
5.764e-05
0.0003256
0.0003481
0.0002615
6.62e-05
5.55e-05
4.217e-05
3.806e-05
6.689e-06
3.324e-06
1.099e-05
2.679e-05
5.436e-05
0.0001116
0.0002103
0.0002593
0.0004697
0.0006221
0.0006235
0.0008941
0.001784
0.001504
0.001204
0.0007763
0.0005505
0.0009481
0.003903
0.009499
0.008896
0.005524
0.004096
0.003688
0.002677
0.001437
0.0004728
0.0002394
0.0002505
0.0004377
0.0008146
0.001208
0.001527
0.0003929
0.0003107
0.0001725
0.0003764
0.0009961
0.03237
0.6528
0.9798
0.9993
1
1
1
1
1
1
1
1
1
1
1
1
1
1
1
1
1
1
1
1
1
1
1
1
1
1
1
1
1
1
1
1
1
1
1
1
1
1
1
1
1
1
1
1
1
1
1
1
1
1
1
1
1
1
1
1
1
1
1
1
1
1
1
1
1
1
1
1
1
1
1
1
1
1
1
1
1
1
1
1
1
1
1
1
1
1
1
1
1
1
1
1
1
1
1
1
1
1
1
1
1
1
1
1
0.0001007
8.7e-05
9.793e-05
2.147e-05
9.162e-06
2.439e-05
2.341e-05
0.0001284
0.0002433
0.0002841
0.0001033
0.0001979
0.0001186
0.0001371
6.334e-05
6.779e-05
0.0001274
0.0001453
0.0001036
0.0001954
0.0004653
0.0004837
0.0006914
0.0005292
0.0003551
0.0006226
0.002085
0.00202
0.001475
0.0009619
0.0004528
0.0005344
0.001462
0.00492
0.008576
0.008153
0.007057
0.00559
0.003962
0.00263
0.001074
0.0003895
0.0002097
0.0002097
0.0001973
0.000366
0.0008472
0.0006596
0.001561
0.003534
0.02453
0.4235
0.9643
0.9981
1
1
1
1
1
1
1
1
1
1
1
1
1
1
1
1
1
1
1
1
1
1
1
1
1
1
1
1
1
0.9999
0.9987
0.9976
0.9966
0.9962
0.997
0.9971
0.9969
0.9972
0.9967
0.9966
0.9977
0.9992
0.9998
1
1
1
1
1
1
1
1
1
1
1
1
1
1
1
1
1
1
1
1
1
1
1
1
1
1
1
1
1
1
1
1
1
1
1
1
1
1
1
1
1
1
1
1
1
1
1
1
1
1
1
1
1
1
1
1
1
1
1
1
1
1
1
0.0001926
0.0001428
0.0001853
3.368e-05
2.041e-05
1.023e-05
4.517e-06
2.445e-05
0.0001305
0.0003036
0.0003287
0.0006336
0.0003886
0.0005811
0.0004554
0.0006117
0.000428
0.0003058
0.0001104
0.0001765
0.0003016
0.0003171
0.0006338
0.0004686
0.0006965
0.001404
0.004786
0.004229
0.003131
0.001658
0.0006876
0.0004562
0.0006926
0.002634
0.00739
0.01359
0.01561
0.009388
0.005874
0.004227
0.002014
0.000869
0.0004064
0.0002065
0.0001482
0.0002513
0.0009006
0.002799
0.01777
0.1604
0.8604
0.9898
0.9998
1
1
1
1
1
1
1
1
1
1
1
1
1
1
1
1
1
1
1
1
1
1
1
1
1
1
0.9999
0.9992
0.9944
0.9783
0.9203
0.6426
0.1461
0.03729
0.0206
0.01626
0.0141
0.01364
0.01037
0.01395
0.04013
0.2126
0.686
0.9332
0.987
0.9972
0.9993
0.9999
1
1
1
1
1
1
1
1
1
1
1
1
1
1
1
1
1
1
1
1
1
1
1
1
1
1
1
1
1
1
1
1
1
1
1
1
1
1
1
1
1
1
1
1
1
1
1
1
1
1
1
1
1
1
1
1
1
1
1
0.0001434
0.0001168
0.0001548
3.057e-05
4.588e-05
1.078e-05
4.874e-06
1.497e-05
0.0001038
0.0001859
0.0003986
0.0007019
0.0005788
0.001016
0.001124
0.001944
0.001371
0.0007085
0.0003494
0.0002224
0.0002872
0.0002784
0.0005008
0.0004546
0.0006221
0.0008513
0.002581
0.003273
0.004135
0.003505
0.001329
0.0004042
0.0002444
0.0004987
0.001994
0.006838
0.01183
0.006706
0.00384
0.003109
0.00285
0.00209
0.001226
0.0005354
0.0003963
0.001057
0.006335
0.06672
0.7437
0.9739
0.9988
1
1
1
1
1
1
1
1
1
1
1
1
1
1
1
1
1
1
1
1
1
1
1
1
1
0.9999
0.9991
0.9907
0.9225
0.6686
0.1325
0.02809
0.007619
0.001459
0.0002079
6.085e-05
5.354e-05
4.064e-05
4.277e-05
4.319e-05
3.701e-05
8.362e-05
0.000341
0.001268
0.003517
0.01206
0.03414
0.1462
0.6216
0.8796
0.973
0.9966
0.9996
0.9999
1
1
1
1
1
1
1
1
1
1
1
1
1
1
1
1
1
1
1
1
1
1
1
1
1
1
1
1
1
1
1
1
1
1
1
1
1
1
1
1
1
1
1
1
1
1
1
1
1
1
1
1
1
0.9999
0.9995
0.0001145
0.0001375
0.0002647
4.409e-05
8.048e-05
9.158e-06
4.703e-06
8.735e-06
0.0001598
0.0002076
0.00052
0.0005217
0.000587
0.0009937
0.0009026
0.001289
0.001515
0.001219
0.0008444
0.0002966
0.000141
8.607e-05
0.0002257
0.0005201
0.0009732
0.0007475
0.001451
0.002112
0.002694
0.002373
0.001102
0.0002777
0.0001329
0.0002917
0.00125
0.005609
0.01185
0.008534
0.004502
0.004041
0.005255
0.00438
0.002847
0.001593
0.001784
0.005817
0.08503
0.8199
0.9897
0.9996
1
1
1
1
1
1
1
1
1
1
1
1
1
1
1
1
1
1
1
1
1
1
1
1
0.9996
0.9949
0.9506
0.7284
0.09631
0.01112
0.001519
0.000329
9.278e-05
3.101e-05
7.62e-06
2.095e-06
5.382e-07
6.921e-07
9.906e-07
1.093e-06
1.337e-06
1.617e-06
6.262e-06
3.514e-05
8.92e-05
0.0001294
0.0001982
0.0002846
0.000628
0.002835
0.009891
0.03639
0.1919
0.7716
0.9488
0.9938
0.9995
0.9999
1
1
1
1
1
1
1
1
1
1
1
1
1
1
1
1
1
1
1
1
1
1
1
1
1
1
1
1
1
1
1
1
1
1
1
1
1
1
1
1
1
1
1
1
1
1
0.9999
0.9989
0.9948
0.9745
0.9229
0.8455
0.00014
0.0002062
0.0005659
7.769e-05
0.0001008
9.332e-06
7.861e-06
1.755e-05
0.0001641
0.0002049
0.0005248
0.0005885
0.001107
0.001458
0.0006449
0.0007096
0.00141
0.002616
0.001736
0.0002964
4.05e-05
1.902e-05
7.41e-05
0.0003704
0.001248
0.001052
0.001137
0.001803
0.002347
0.001745
0.0009204
0.0002495
0.0001242
0.0003008
0.0009692
0.004063
0.00715
0.005027
0.003031
0.003469
0.006263
0.007024
0.006418
0.005553
0.01266
0.2142
0.925
0.9973
1
1
1
1
1
1
1
1
1
1
1
1
1
1
1
1
1
1
1
1
1
1
1
1
0.9995
0.9918
0.8821
0.1646
0.01306
0.002615
0.0003736
9.668e-05
3.171e-05
1.376e-05
3.839e-06
1.27e-06
2.631e-07
2.367e-07
1.572e-07
3.972e-07
6.443e-07
1.194e-06
1.455e-06
1.595e-06
3.397e-06
1.05e-05
1.324e-05
1.073e-05
8.372e-06
8.03e-06
1.189e-05
3.628e-05
9.097e-05
0.0001833
0.0009921
0.008413
0.02759
0.2123
0.811
0.9556
0.9921
0.9992
1
1
1
1
1
1
1
1
1
1
1
1
1
1
1
1
1
1
1
1
1
1
1
1
1
1
1
1
1
1
1
1
1
1
1
1
1
1
1
1
0.9999
0.9988
0.9926
0.9486
0.7058
0.1511
0.04556
0.01651
0.009322
0.002906
8.322e-05
0.000129
0.0005887
9.909e-05
0.0001126
1.452e-05
1.218e-05
3.104e-05
0.000316
0.0003055
0.0004064
0.0005395
0.001748
0.002455
0.0005441
0.0002694
0.0002957
0.0009013
0.0009683
0.0003113
2.639e-05
1.286e-05
3.427e-05
0.0002904
0.00125
0.001311
0.001208
0.001703
0.001458
0.0008622
0.0004711
0.000262
0.0002268
0.0008948
0.002167
0.004445
0.00377
0.002036
0.0007358
0.0005912
0.001012
0.002043
0.00645
0.03135
0.4644
0.9577
0.9984
1
1
1
1
1
1
1
1
1
1
1
1
1
1
1
1
1
1
1
1
1
1
1
0.9991
0.9866
0.7642
0.07586
0.006173
0.0008984
0.0002536
0.0001076
2.811e-05
1.719e-05
1.063e-05
8.249e-06
2.728e-06
2.049e-06
9.52e-07
1.242e-06
1.088e-06
3.197e-06
5.43e-06
1.097e-05
1.152e-05
9.559e-06
1.414e-05
1.626e-05
1.185e-05
8.333e-06
5.707e-06
3.426e-06
2.026e-06
2.517e-06
2.514e-06
2.754e-06
1.122e-05
5.521e-05
0.0001592
0.0008275
0.009408
0.05122
0.5076
0.9747
0.9995
1
1
1
1
1
1
1
1
1
1
1
1
1
1
1
1
1
1
1
1
1
1
1
1
1
1
1
1
1
1
1
1
1
1
0.9999
0.9997
0.9983
0.9922
0.9569
0.8107
0.1731
0.03173
0.00585
0.00166
0.0003977
0.0001198
4.096e-05
1.716e-05
1.383e-06
2.934e-05
4.656e-05
0.0003664