/*--------------------------------*- C++ -*----------------------------------*\
| =========                 |                                                 |
| \\      /  F ield         | OpenFOAM: The Open Source CFD Toolbox           |
|  \\    /   O peration     | Version:  5.x                                   |
|   \\  /    A nd           | Web:      www.OpenFOAM.org                      |
|    \\/     M anipulation  |                                                 |
\*---------------------------------------------------------------------------*/
FoamFile
{
    version     2.0;
    format      ascii;
    class       volScalarField;
    location    "60";
    object      gamma;
}
// * * * * * * * * * * * * * * * * * * * * * * * * * * * * * * * * * * * * * //

dimensions      [0 0 0 0 0 0 0];

internalField   nonuniform List<scalar> 
86400
(
0.0036
0.00327
0.003183
0.003228
0.003747
0.004688
0.005876
0.007595
0.01091
0.01601
0.02429
0.03592
0.05313
0.07031
0.08914
0.09973
0.1033
0.0948
0.08863
0.08511
0.08439
0.0814
0.07829
0.07267
0.07077
0.07584
0.07726
0.0774
0.07344
0.07025
0.06671
0.06583
0.06506
0.06438
0.0641
0.06432
0.0586
0.05068
0.04109
0.03583
0.03313
0.03389
0.03349
0.03192
0.0321
0.03352
0.03698
0.03914
0.04026
0.03855
0.03778
0.03757
0.03749
0.03716
0.03619
0.03636
0.03685
0.03739
0.03773
0.03799
0.0365
0.03633
0.03479
0.03496
0.03763
0.04191
0.04607
0.04891
0.04673
0.04444
0.04475
0.04605
0.0479
0.04721
0.0477
0.04859
0.04931
0.05361
0.0607
0.06855
0.07775
0.08375
0.08319
0.08238
0.08296
0.08238
0.08433
0.08507
0.08587
0.08587
0.08393
0.08852
0.09693
0.112
0.1236
0.1315
0.1289
0.1282
0.1283
0.1292
0.1301
0.1316
0.1287
0.1231
0.1129
0.1133
0.1226
0.1459
0.1672
0.1835
0.1843
0.1821
0.1811
0.1808
0.1806
0.1805
0.1806
0.1807
0.1813
0.1821
0.183
0.1838
0.1843
0.1844
0.1846
0.185
0.1846
0.1839
0.183
0.1822
0.1817
0.1843
0.1873
0.1905
0.1933
0.1953
0.1961
0.1957
0.18
0.1584
0.1419
0.1404
0.1455
0.1546
0.1528
0.1449
0.1386
0.1397
0.1411
0.1398
0.1353
0.1324
0.1337
0.1234
0.1146
0.1174
0.1461
0.2467
0.8719
0.9843
0.00342
0.003044
0.002967
0.003032
0.003781
0.005286
0.007499
0.01106
0.01747
0.02696
0.0427
0.06082
0.08076
0.09625
0.1149
0.1298
0.1455
0.1462
0.1538
0.1634
0.1778
0.1866
0.186
0.167
0.1558
0.1492
0.1452
0.1402
0.134
0.1276
0.1185
0.1117
0.1054
0.09999
0.09642
0.09522
0.08824
0.07893
0.06892
0.06222
0.05798
0.05744
0.05653
0.05401
0.05301
0.05372
0.05527
0.05657
0.05733
0.05596
0.05583
0.05645
0.05726
0.05769
0.05671
0.05598
0.05505
0.05473
0.05383
0.05352
0.05162
0.05185
0.04996
0.0505
0.05426
0.06251
0.06833
0.07226
0.06938
0.06692
0.06763
0.0695
0.07242
0.07299
0.07562
0.07991
0.08699
0.09626
0.1065
0.1125
0.1215
0.1281
0.1314
0.1349
0.1389
0.1404
0.1441
0.1452
0.1465
0.1469
0.145
0.1507
0.16
0.1721
0.1828
0.1898
0.187
0.1863
0.1865
0.1877
0.1891
0.1912
0.1895
0.1835
0.1731
0.1715
0.1798
0.1985
0.2204
0.2367
0.2386
0.2363
0.2354
0.2352
0.2351
0.2353
0.2357
0.2362
0.2373
0.2388
0.2405
0.242
0.2431
0.2436
0.2441
0.2448
0.2444
0.2434
0.2422
0.2412
0.2407
0.2442
0.2478
0.2526
0.2559
0.2572
0.2561
0.2536
0.2379
0.217
0.205
0.2035
0.2061
0.2136
0.2143
0.2075
0.2024
0.2049
0.2084
0.207
0.2018
0.198
0.2009
0.1962
0.1999
0.23
0.3224
0.5248
0.8111
0.935
0.003542
0.00316
0.003118
0.003363
0.004658
0.007329
0.01169
0.01955
0.03269
0.05136
0.07791
0.1041
0.1359
0.1645
0.197
0.2221
0.2491
0.26
0.3085
0.3629
0.4207
0.4431
0.4388
0.3994
0.3743
0.3529
0.3278
0.2994
0.2756
0.2559
0.2371
0.2207
0.2037
0.1888
0.1771
0.1703
0.1578
0.1428
0.1282
0.1187
0.1121
0.1095
0.1049
0.1
0.09702
0.09715
0.09799
0.09891
0.09965
0.09629
0.09336
0.09135
0.09071
0.09135
0.09237
0.09204
0.09055
0.08849
0.08712
0.08688
0.08594
0.08811
0.08726
0.09109
0.09595
0.1023
0.1074
0.1115
0.1078
0.1047
0.106
0.1097
0.1173
0.1241
0.1347
0.1498
0.165
0.1788
0.1931
0.1991
0.2079
0.2146
0.2201
0.2285
0.2391
0.2444
0.2519
0.2556
0.2575
0.2571
0.252
0.253
0.2599
0.272
0.2833
0.2909
0.2901
0.2899
0.2915
0.2938
0.2966
0.2998
0.301
0.2962
0.2846
0.279
0.2847
0.3001
0.3207
0.3361
0.3388
0.3362
0.3352
0.3349
0.3352
0.3359
0.3362
0.336
0.3366
0.338
0.3407
0.3436
0.346
0.3474
0.3489
0.3506
0.3507
0.3499
0.3481
0.3473
0.3473
0.352
0.3566
0.3615
0.3651
0.3661
0.364
0.3601
0.3462
0.3283
0.3183
0.3174
0.3212
0.3285
0.3294
0.323
0.3185
0.3227
0.3306
0.3329
0.3337
0.3349
0.3547
0.3735
0.4215
0.5091
0.6222
0.7444
0.851
0.9096
0.003934
0.003673
0.003881
0.004728
0.007571
0.01358
0.02408
0.04366
0.0741
0.1145
0.162
0.2003
0.2606
0.3026
0.358
0.4006
0.4481
0.4774
0.5628
0.6286
0.6784
0.7001
0.6942
0.667
0.6432
0.6139
0.5811
0.549
0.5219
0.4974
0.4762
0.4523
0.4204
0.3916
0.3634
0.3421
0.3172
0.2951
0.2778
0.2706
0.2658
0.2638
0.258
0.2504
0.2355
0.2228
0.2092
0.1979
0.1914
0.1833
0.1749
0.1685
0.1674
0.1692
0.1742
0.1756
0.1751
0.1749
0.1802
0.1873
0.1928
0.2015
0.2014
0.2012
0.2017
0.2037
0.2036
0.2065
0.2027
0.2083
0.221
0.2362
0.2623
0.2869
0.3092
0.3422
0.3746
0.3936
0.4066
0.4087
0.4092
0.4143
0.429
0.4472
0.4648
0.4771
0.4871
0.4926
0.4955
0.4968
0.4941
0.49
0.4893
0.4927
0.4954
0.4985
0.501
0.502
0.5041
0.5068
0.5101
0.5133
0.5163
0.5147
0.5066
0.4951
0.4891
0.4889
0.4934
0.4991
0.5018
0.5008
0.5008
0.5014
0.5025
0.504
0.5046
0.5045
0.505
0.5063
0.5085
0.5117
0.5144
0.5164
0.5185
0.5207
0.5213
0.5211
0.5205
0.5202
0.5206
0.5243
0.5278
0.5305
0.5323
0.5312
0.528
0.5235
0.5204
0.5186
0.5191
0.5207
0.5232
0.5255
0.5273
0.528
0.5294
0.5348
0.5452
0.5539
0.5657
0.5792
0.6036
0.6328
0.6877
0.7571
0.8263
0.8865
0.9315
0.9558
0.005239
0.005486
0.006451
0.009034
0.01621
0.03127
0.05605
0.1017
0.1607
0.2198
0.2792
0.3256
0.4405
0.5151
0.5729
0.5798
0.5925
0.6151
0.6976
0.7628
0.796
0.8078
0.7924
0.7702
0.7559
0.7438
0.7293
0.7129
0.696
0.6736
0.6501
0.6236
0.5962
0.573
0.5552
0.535
0.506
0.4927
0.4957
0.5184
0.5444
0.5605
0.5603
0.5575
0.5425
0.5265
0.5069
0.4873
0.4706
0.4474
0.4176
0.3849
0.3717
0.3688
0.379
0.3807
0.3874
0.4059
0.4372
0.4697
0.4969
0.5143
0.5172
0.5005
0.4702
0.4317
0.4042
0.3863
0.373
0.3806
0.3985
0.4211
0.4629
0.4996
0.5215
0.5375
0.5506
0.5568
0.5641
0.5736
0.5761
0.5792
0.5866
0.5966
0.6068
0.6162
0.6231
0.627
0.63
0.6317
0.6295
0.6276
0.6287
0.633
0.6381
0.6428
0.6461
0.6476
0.6496
0.6511
0.6522
0.652
0.6505
0.646
0.638
0.6293
0.6226
0.6199
0.6202
0.6221
0.6227
0.6226
0.6231
0.6242
0.625
0.626
0.6259
0.6255
0.6252
0.6264
0.6283
0.6312
0.6338
0.6359
0.638
0.6401
0.6412
0.6417
0.642
0.6427
0.6439
0.6463
0.6481
0.6487
0.6487
0.6472
0.6448
0.6426
0.642
0.6425
0.6448
0.6481
0.6511
0.6544
0.6581
0.6607
0.664
0.6703
0.6817
0.6946
0.7124
0.7313
0.7551
0.7858
0.8296
0.8739
0.9126
0.9409
0.9606
0.972
0.007352
0.008833
0.01176
0.01906
0.03723
0.06904
0.1143
0.1838
0.2529
0.2975
0.3631
0.439
0.5645
0.6462
0.6913
0.6831
0.6723
0.6808
0.7415
0.8018
0.8329
0.8453
0.8328
0.8181
0.8005
0.7863
0.7697
0.7553
0.74
0.7191
0.6973
0.6742
0.6544
0.6395
0.6315
0.6128
0.5892
0.5964
0.6334
0.6914
0.7448
0.7809
0.7953
0.8013
0.7957
0.7827
0.7619
0.7374
0.7064
0.6627
0.6068
0.544
0.5013
0.4868
0.5013
0.5198
0.5489
0.5928
0.6474
0.6987
0.7364
0.7511
0.7392
0.7071
0.6594
0.6066
0.5744
0.5539
0.544
0.5477
0.5595
0.5772
0.6065
0.6306
0.6387
0.6467
0.652
0.6574
0.6657
0.6767
0.682
0.6866
0.6912
0.6976
0.7029
0.708
0.7119
0.7147
0.7166
0.7185
0.7195
0.7198
0.7224
0.7265
0.7303
0.7339
0.7362
0.7372
0.7387
0.7383
0.7366
0.7328
0.7274
0.7208
0.7136
0.7068
0.7017
0.6993
0.6983
0.6981
0.6972
0.6966
0.6967
0.6976
0.6987
0.6996
0.6997
0.6997
0.7
0.7011
0.7028
0.7051
0.7074
0.7096
0.7117
0.7137
0.7153
0.7168
0.7182
0.72
0.7218
0.724
0.7261
0.7273
0.7282
0.7283
0.7278
0.7269
0.727
0.7278
0.7303
0.7338
0.7374
0.7412
0.7457
0.7498
0.7551
0.7626
0.7735
0.7869
0.8036
0.8205
0.8408
0.8657
0.8959
0.9237
0.9461
0.9609
0.9709
0.9777
0.01067
0.0141
0.02042
0.03466
0.06579
0.1117
0.1731
0.2497
0.3152
0.3482
0.4275
0.518
0.6444
0.7289
0.7656
0.7522
0.7216
0.7093
0.7399
0.7909
0.822
0.8323
0.8246
0.8236
0.8199
0.8153
0.803
0.7857
0.7707
0.7545
0.7408
0.725
0.7184
0.7175
0.7195
0.7083
0.6997
0.7274
0.7857
0.8509
0.8966
0.9216
0.9315
0.9345
0.9317
0.924
0.9117
0.8934
0.8652
0.8206
0.7555
0.6686
0.5944
0.5591
0.5678
0.5957
0.6425
0.7041
0.7714
0.8264
0.8571
0.8641
0.8471
0.8119
0.7624
0.7129
0.6803
0.6594
0.6527
0.6494
0.6574
0.6683
0.6905
0.7071
0.7117
0.714
0.7155
0.7202
0.727
0.7361
0.7411
0.7452
0.7495
0.7548
0.7602
0.7652
0.7689
0.7711
0.7729
0.7747
0.7754
0.7755
0.777
0.7792
0.7815
0.7832
0.7839
0.7841
0.7839
0.7813
0.7773
0.7705
0.763
0.7564
0.7521
0.7483
0.7461
0.7453
0.7447
0.7444
0.7436
0.7429
0.7428
0.7435
0.7445
0.7454
0.7456
0.7461
0.747
0.7486
0.7506
0.7528
0.7551
0.7571
0.7591
0.7609
0.7627
0.7644
0.7662
0.7681
0.77
0.7723
0.7747
0.7763
0.7779
0.7795
0.7802
0.7806
0.7815
0.7829
0.7854
0.7893
0.7935
0.7979
0.803
0.8083
0.8147
0.8224
0.8318
0.8426
0.8549
0.8695
0.8878
0.9086
0.9301
0.948
0.9603
0.9685
0.9742
0.9779
0.01758
0.02372
0.03444
0.05636
0.09836
0.1516
0.2221
0.2951
0.3672
0.4261
0.5233
0.6205
0.7182
0.7827
0.8111
0.8036
0.7698
0.7316
0.7095
0.7199
0.7377
0.7528
0.766
0.7927
0.8138
0.827
0.8265
0.8146
0.8015
0.7952
0.7948
0.7988
0.8081
0.8192
0.8264
0.8219
0.8221
0.8494
0.897
0.9399
0.966
0.9778
0.9823
0.9834
0.9823
0.9793
0.974
0.965
0.9489
0.92
0.8716
0.7961
0.7207
0.6773
0.6839
0.7054
0.7402
0.7921
0.8482
0.8926
0.913
0.9134
0.8912
0.8538
0.8073
0.7654
0.7388
0.7222
0.7171
0.717
0.7224
0.7291
0.7423
0.7517
0.7546
0.7564
0.7596
0.7662
0.7725
0.78
0.7843
0.7873
0.7902
0.794
0.7981
0.802
0.8048
0.8058
0.807
0.8085
0.8103
0.8122
0.8143
0.8159
0.8175
0.8181
0.8166
0.8144
0.8112
0.8056
0.7993
0.7915
0.784
0.7784
0.7758
0.7738
0.7735
0.7739
0.7744
0.7744
0.774
0.7733
0.7733
0.7741
0.7753
0.7764
0.7775
0.7789
0.7806
0.7828
0.785
0.7871
0.7893
0.7913
0.7933
0.7953
0.7973
0.7992
0.801
0.8028
0.8048
0.8071
0.8097
0.812
0.814
0.8161
0.8174
0.8186
0.8201
0.822
0.8248
0.8289
0.8332
0.8378
0.8429
0.8487
0.8553
0.8627
0.8706
0.8788
0.8892
0.9029
0.919
0.9355
0.9501
0.9603
0.9673
0.9722
0.9752
0.9766
0.03021
0.03998
0.05347
0.08091
0.1293
0.1891
0.2646
0.3499
0.4407
0.5194
0.6191
0.7102
0.7772
0.8227
0.8463
0.8384
0.8112
0.762
0.7162
0.7058
0.7065
0.689
0.6916
0.7234
0.7634
0.804
0.8216
0.8189
0.814
0.8208
0.8339
0.8546
0.8775
0.8966
0.9056
0.9029
0.9008
0.9157
0.9458
0.9721
0.9864
0.9922
0.9943
0.9948
0.9944
0.9932
0.9909
0.9866
0.9782
0.9611
0.9291
0.8738
0.8121
0.7737
0.7716
0.78
0.803
0.8391
0.8809
0.9128
0.9263
0.9219
0.8966
0.8599
0.8206
0.788
0.7686
0.7581
0.757
0.7566
0.7576
0.7593
0.7664
0.7739
0.7814
0.7883
0.7948
0.8014
0.8068
0.8116
0.8154
0.818
0.82
0.8225
0.8252
0.8278
0.8304
0.8319
0.8331
0.834
0.8351
0.836
0.8375
0.8391
0.8409
0.8404
0.8366
0.8307
0.8236
0.8155
0.8085
0.8025
0.7971
0.7942
0.7939
0.7939
0.7947
0.7956
0.7964
0.7966
0.7966
0.7966
0.7969
0.7979
0.7993
0.8007
0.8022
0.8039
0.8058
0.8079
0.8101
0.812
0.8138
0.8155
0.8173
0.8193
0.8219
0.8245
0.8269
0.8292
0.8314
0.8338
0.8365
0.8393
0.8418
0.8444
0.8464
0.8484
0.8504
0.8529
0.856
0.8599
0.864
0.8684
0.8731
0.8783
0.8841
0.8902
0.8963
0.9021
0.912
0.9252
0.9396
0.9528
0.9622
0.9679
0.9718
0.9749
0.976
0.9751
0.04871
0.0595
0.0758
0.1117
0.1684
0.247
0.3495
0.4604
0.5463
0.631
0.7085
0.7706
0.8094
0.8375
0.8504
0.8402
0.8203
0.7764
0.7159
0.6851
0.6627
0.6067
0.5755
0.5874
0.6127
0.6885
0.7351
0.748
0.7585
0.791
0.8265
0.867
0.9022
0.9273
0.9397
0.9408
0.9389
0.9451
0.963
0.9813
0.9915
0.9955
0.9969
0.9972
0.997
0.9962
0.9946
0.9914
0.985
0.9715
0.9467
0.9038
0.8547
0.8212
0.811
0.8093
0.8235
0.8469
0.8773
0.9036
0.9125
0.9017
0.8746
0.8387
0.808
0.787
0.7746
0.7696
0.7724
0.7769
0.7822
0.7873
0.7925
0.7981
0.8042
0.8096
0.8142
0.8187
0.8225
0.8265
0.8301
0.8333
0.8351
0.837
0.8393
0.8419
0.8449
0.8469
0.8485
0.8498
0.8513
0.8528
0.8547
0.8552
0.855
0.8516
0.8448
0.8364
0.8274
0.8191
0.8139
0.8107
0.8082
0.8077
0.8082
0.809
0.8097
0.8106
0.8115
0.8122
0.8128
0.8135
0.8144
0.8157
0.8176
0.8195
0.8216
0.8234
0.8252
0.827
0.8288
0.8305
0.8322
0.8342
0.8364
0.8389
0.842
0.845
0.8475
0.8499
0.8521
0.8546
0.8572
0.8599
0.8623
0.8648
0.8672
0.8698
0.8726
0.8756
0.8789
0.8825
0.8863
0.8902
0.8942
0.8986
0.9032
0.9079
0.9125
0.9167
0.9268
0.9399
0.9532
0.9629
0.9692
0.9721
0.9738
0.9752
0.974
0.9702
0.07028
0.08268
0.1019
0.1466
0.2199
0.352
0.493
0.5967
0.668
0.7316
0.7716
0.805
0.8206
0.8218
0.8012
0.7743
0.7544
0.714
0.6827
0.6664
0.6227
0.5067
0.3697
0.3076
0.2893
0.3802
0.5067
0.573
0.6206
0.683
0.7442
0.8134
0.8734
0.9177
0.9403
0.9464
0.945
0.9476
0.9609
0.979
0.9903
0.9949
0.9966
0.9971
0.9968
0.9959
0.9939
0.99
0.9825
0.9684
0.9464
0.915
0.8813
0.8535
0.8358
0.8222
0.8242
0.8363
0.8569
0.8676
0.8684
0.8527
0.8275
0.8018
0.7872
0.7802
0.7773
0.7763
0.7797
0.785
0.7906
0.7963
0.8015
0.8061
0.8109
0.8153
0.819
0.8228
0.8265
0.8311
0.836
0.8403
0.8436
0.8466
0.8494
0.8526
0.8558
0.8584
0.8604
0.862
0.8637
0.8654
0.8662
0.8639
0.8602
0.8534
0.8442
0.8343
0.8264
0.8198
0.8172
0.8167
0.8166
0.8173
0.8181
0.8189
0.8197
0.8207
0.8217
0.8229
0.8243
0.8259
0.8276
0.8295
0.8312
0.8329
0.8347
0.8362
0.8378
0.8395
0.8415
0.8436
0.8458
0.8482
0.8509
0.8536
0.8569
0.86
0.8627
0.8653
0.8678
0.8702
0.8726
0.8752
0.8774
0.8799
0.8825
0.8854
0.8883
0.8913
0.8945
0.8978
0.9012
0.9047
0.9083
0.912
0.9157
0.9194
0.9228
0.9258
0.9349
0.9461
0.9578
0.9662
0.9717
0.9734
0.9738
0.973
0.9689
0.9615
0.08747
0.1023
0.1311
0.1897
0.2924
0.4772
0.6147
0.7149
0.7712
0.8066
0.815
0.8228
0.8124
0.7736
0.7124
0.6515
0.6036
0.5555
0.4842
0.4136
0.3315
0.2377
0.1956
0.1502
0.1253
0.1418
0.1976
0.2533
0.3255
0.4278
0.5296
0.6531
0.7656
0.8596
0.9097
0.9282
0.9291
0.9306
0.9431
0.9666
0.9837
0.9914
0.9943
0.9951
0.9946
0.9929
0.9891
0.9819
0.969
0.9486
0.9239
0.8966
0.8709
0.8473
0.8275
0.8082
0.8013
0.8024
0.8049
0.804
0.7992
0.7866
0.7757
0.769
0.769
0.7695
0.7703
0.7705
0.7733
0.7794
0.7863
0.7932
0.7993
0.8041
0.8082
0.8117
0.8151
0.8189
0.8242
0.831
0.8379
0.8441
0.8489
0.8531
0.8566
0.8599
0.863
0.8655
0.8674
0.869
0.8709
0.8716
0.8701
0.8644
0.8565
0.8459
0.8362
0.8287
0.8239
0.8203
0.8198
0.8206
0.8213
0.8222
0.823
0.8239
0.825
0.8261
0.8274
0.8289
0.8306
0.8324
0.8342
0.8359
0.8374
0.8389
0.8405
0.8423
0.8443
0.8464
0.849
0.8518
0.8545
0.8575
0.8606
0.8636
0.8668
0.87
0.8728
0.8755
0.8782
0.8805
0.8828
0.8852
0.8877
0.8904
0.8934
0.8964
0.8995
0.9024
0.9054
0.9083
0.9113
0.9144
0.9175
0.9205
0.9236
0.9265
0.9291
0.9313
0.9385
0.947
0.9567
0.9639
0.9689
0.9702
0.9701
0.9672
0.9595
0.9481
0.09145
0.1136
0.1572
0.2394
0.3734
0.5441
0.6795
0.7723
0.8242
0.8503
0.8446
0.8222
0.771
0.692
0.5822
0.4327
0.2885
0.1851
0.1074
0.07504
0.0694
0.06601
0.07137
0.07226
0.0686
0.07397
0.09869
0.1197
0.1469
0.1789
0.2121
0.3163
0.5137
0.7038
0.8173
0.8673
0.8802
0.8878
0.9029
0.9379
0.9672
0.9817
0.9876
0.9892
0.988
0.9841
0.9758
0.9607
0.9369
0.9067
0.8799
0.859
0.8402
0.8213
0.7974
0.7742
0.7648
0.7573
0.7476
0.7411
0.7364
0.7345
0.7411
0.7478
0.7519
0.7538
0.7531
0.7529
0.7566
0.7647
0.7741
0.7827
0.79
0.7946
0.7978
0.8007
0.8043
0.8096
0.8177
0.8273
0.8367
0.8449
0.8517
0.857
0.8613
0.8647
0.8676
0.8696
0.8711
0.8713
0.8709
0.8685
0.8633
0.8542
0.8432
0.832
0.8239
0.8195
0.818
0.8173
0.8182
0.8191
0.82
0.821
0.822
0.8232
0.8245
0.826
0.8277
0.8296
0.8316
0.8336
0.8352
0.8368
0.8382
0.84
0.8421
0.8447
0.8473
0.8502
0.8534
0.8568
0.8602
0.8637
0.867
0.8701
0.8733
0.8765
0.8796
0.8825
0.8852
0.8877
0.8901
0.8926
0.8954
0.8984
0.9014
0.9043
0.9071
0.9098
0.9125
0.9152
0.9179
0.9206
0.9232
0.9258
0.9283
0.9307
0.9328
0.9345
0.9388
0.944
0.9507
0.9577
0.9633
0.9648
0.9638
0.9574
0.9467
0.9332
0.08836
0.1188
0.1784
0.2918
0.4422
0.5728
0.6855
0.7796
0.8351
0.8549
0.8315
0.7807
0.6933
0.5729
0.3737
0.1703
0.06949
0.0224
0.008414
0.004673
0.005337
0.008864
0.0172
0.03098
0.04236
0.04845
0.06195
0.07086
0.07349
0.07711
0.08209
0.1063
0.1648
0.3461
0.5751
0.6987
0.7448
0.7781
0.8079
0.8685
0.923
0.9535
0.9671
0.971
0.9686
0.9595
0.9419
0.9132
0.8743
0.8352
0.8105
0.7983
0.7857
0.7711
0.7512
0.7318
0.7155
0.7068
0.697
0.693
0.695
0.7037
0.7139
0.7234
0.7294
0.7317
0.7316
0.7309
0.7356
0.7447
0.7559
0.7659
0.7742
0.7789
0.7817
0.7842
0.7882
0.7957
0.8066
0.8194
0.8317
0.8424
0.8513
0.8578
0.8627
0.8653
0.8665
0.8659
0.8644
0.8611
0.8574
0.8518
0.8443
0.8327
0.8222
0.813
0.8085
0.8078
0.8089
0.81
0.8111
0.8122
0.8133
0.8146
0.816
0.8176
0.8194
0.8214
0.8235
0.8258
0.828
0.8299
0.8317
0.8335
0.8355
0.8382
0.8412
0.8446
0.8481
0.8518
0.8557
0.8598
0.8636
0.8675
0.8711
0.8744
0.8776
0.8808
0.8839
0.8868
0.8895
0.892
0.8947
0.8976
0.9007
0.9037
0.9065
0.9093
0.9119
0.9145
0.917
0.9195
0.922
0.9244
0.9267
0.9289
0.931
0.9329
0.9345
0.9357
0.9377
0.941
0.9463
0.9533
0.9587
0.9609
0.9586
0.9499
0.936
0.9208
0.08273
0.1221
0.2068
0.3851
0.53
0.6174
0.6842
0.7525
0.8087
0.8292
0.8037
0.7346
0.5887
0.3481
0.1246
0.03693
0.007365
0.001625
0.0005556
0.0003409
0.000578
0.001626
0.005153
0.01326
0.02586
0.03288
0.04101
0.04721
0.04511
0.0409
0.03949
0.04873
0.0709
0.1265
0.2111
0.3334
0.4319
0.5323
0.6075
0.7202
0.8169
0.8752
0.9041
0.9135
0.908
0.8896
0.8564
0.8108
0.7633
0.7274
0.7132
0.7114
0.706
0.6981
0.6884
0.6773
0.6647
0.6588
0.6491
0.6487
0.6574
0.6698
0.683
0.694
0.7014
0.7046
0.7065
0.7068
0.7133
0.7231
0.735
0.7448
0.7529
0.7569
0.7594
0.7618
0.7667
0.7754
0.7883
0.8038
0.8198
0.8343
0.8463
0.8545
0.8592
0.8601
0.8579
0.8528
0.8467
0.8389
0.8317
0.8229
0.8144
0.8051
0.7986
0.7939
0.7933
0.7946
0.796
0.7973
0.7986
0.8001
0.8016
0.8034
0.8054
0.8075
0.8099
0.8123
0.8149
0.818
0.821
0.8235
0.8258
0.8281
0.8308
0.8344
0.8386
0.8429
0.8474
0.8518
0.8564
0.8609
0.865
0.8688
0.8724
0.8758
0.8792
0.8827
0.886
0.8891
0.8919
0.8947
0.8977
0.9008
0.9039
0.9068
0.9096
0.9122
0.9147
0.9172
0.9196
0.9219
0.9242
0.9263
0.9284
0.9303
0.932
0.9335
0.9346
0.9354
0.9368
0.9405
0.9457
0.9528
0.9579
0.9607
0.9581
0.9502
0.9369
0.9236
0.07989
0.1329
0.2582
0.5037
0.6288
0.6759
0.6907
0.7201
0.7627
0.799
0.7848
0.6902
0.4278
0.13
0.02598
0.003881
0.0005969
0.0001332
5.676e-05
4.522e-05
0.0001219
0.0005678
0.002978
0.01063
0.02627
0.03046
0.03838
0.04228
0.03915
0.03492
0.03342
0.04261
0.05676
0.0842
0.1056
0.1351
0.1658
0.2265
0.2955
0.4405
0.5832
0.6729
0.7248
0.7469
0.7404
0.7138
0.6718
0.6248
0.5914
0.5737
0.5747
0.5774
0.577
0.5771
0.582
0.5869
0.5905
0.5935
0.5927
0.6033
0.618
0.6333
0.6478
0.659
0.6676
0.6728
0.6773
0.6805
0.6889
0.6985
0.7105
0.7197
0.7268
0.7294
0.7313
0.7345
0.7402
0.7485
0.7615
0.7785
0.7982
0.8175
0.8338
0.8444
0.8483
0.8461
0.8389
0.828
0.8165
0.8044
0.7944
0.7859
0.7798
0.7747
0.773
0.7726
0.7742
0.7758
0.7774
0.779
0.7808
0.7827
0.7849
0.7872
0.7898
0.7926
0.7955
0.7988
0.8025
0.807
0.8114
0.8149
0.8177
0.8208
0.8245
0.8291
0.8344
0.8396
0.8449
0.8499
0.8549
0.8595
0.8637
0.8677
0.8716
0.8754
0.8793
0.8831
0.8867
0.8899
0.8929
0.896
0.8992
0.9024
0.9055
0.9083
0.911
0.9135
0.916
0.9184
0.9207
0.9229
0.925
0.9269
0.9287
0.9303
0.9316
0.9326
0.9332
0.9346
0.9383
0.9446
0.951
0.9579
0.9615
0.9633
0.9621
0.9564
0.9453
0.931
0.07699
0.1444
0.3119
0.5904
0.709
0.7417
0.7218
0.703
0.7312
0.7856
0.7904
0.6902
0.2976
0.03427
0.002826
0.0002969
5.486e-05
2.113e-05
1.883e-05
2.702e-05
0.0001096
0.0006232
0.003567
0.01298
0.0334
0.0343
0.0406
0.04375
0.03992
0.03626
0.03765
0.04887
0.06224
0.07776
0.07869
0.08263
0.09402
0.1207
0.1536
0.2004
0.2654
0.3264
0.3824
0.4125
0.4139
0.3997
0.3776
0.3597
0.3663
0.3787
0.3997
0.4074
0.4166
0.4283
0.4581
0.4868
0.5097
0.5277
0.5393
0.5571
0.5761
0.5943
0.6093
0.6202
0.629
0.6357
0.6424
0.6496
0.66
0.6706
0.6817
0.6898
0.6957
0.698
0.7007
0.7044
0.7101
0.7173
0.7278
0.7433
0.7643
0.7874
0.807
0.8203
0.824
0.8191
0.8072
0.7914
0.7749
0.7616
0.7512
0.7455
0.7436
0.7433
0.7452
0.747
0.7488
0.7506
0.7526
0.7547
0.757
0.7595
0.7622
0.7652
0.7683
0.7721
0.7763
0.7813
0.7867
0.793
0.7989
0.8038
0.8079
0.8118
0.8162
0.8217
0.8282
0.8342
0.84
0.8457
0.851
0.8561
0.8608
0.8653
0.8696
0.8739
0.8781
0.8823
0.886
0.8895
0.8928
0.8961
0.8994
0.9026
0.9056
0.9084
0.911
0.9136
0.916
0.9183
0.9205
0.9226
0.9245
0.9262
0.9277
0.9289
0.9297
0.9315
0.9337
0.9376
0.9436
0.9511
0.9578
0.9633
0.9663
0.9682
0.9685
0.9632
0.9527
0.9337
0.07233
0.1514
0.3589
0.6429
0.7475
0.7861
0.7637
0.7129
0.7374
0.7933
0.8105
0.6789
0.1693
0.008514
0.0004129
4.393e-05
1.495e-05
1.339e-05
2.738e-05
6.345e-05
0.0003075
0.001672
0.008847
0.0277
0.06166
0.0545
0.05511
0.05373
0.04978
0.0497
0.05645
0.07317
0.09206
0.09538
0.08315
0.07673
0.08194
0.0976
0.1143
0.1336
0.1537
0.1663
0.1799
0.1892
0.1949
0.2
0.2028
0.2089
0.223
0.2359
0.2496
0.2634
0.279
0.3023
0.3477
0.3996
0.4399
0.4694
0.4896
0.51
0.5314
0.5518
0.5674
0.5782
0.5864
0.5948
0.6043
0.6159
0.6278
0.6385
0.6482
0.6554
0.6605
0.6638
0.6675
0.6718
0.677
0.6824
0.6894
0.7011
0.7205
0.7437
0.7651
0.7798
0.7829
0.7762
0.7612
0.7434
0.7259
0.7145
0.7078
0.7066
0.7083
0.7104
0.7126
0.7146
0.7166
0.7186
0.7208
0.7232
0.7258
0.7287
0.7319
0.7358
0.7403
0.746
0.7523
0.7594
0.7665
0.7745
0.7818
0.7877
0.7928
0.7977
0.8027
0.8087
0.8164
0.8242
0.8321
0.8395
0.846
0.8516
0.8569
0.8619
0.8667
0.8716
0.8761
0.8805
0.8844
0.888
0.8915
0.895
0.8983
0.9016
0.9045
0.9073
0.9099
0.9125
0.9148
0.917
0.9191
0.921
0.9227
0.9242
0.9253
0.9259
0.9276
0.9319
0.9369
0.9434
0.9506
0.9577
0.9627
0.9669
0.968
0.9679
0.9673
0.9606
0.9482
0.9252
0.07428
0.1647
0.3975
0.6709
0.7674
0.809
0.789
0.7311
0.7416
0.7872
0.8071
0.6399
0.09924
0.003674
0.000174
2.673e-05
1.999e-05
3.883e-05
0.0001317
0.0004529
0.0021
0.008341
0.02895
0.06855
0.1193
0.09906
0.08863
0.07413
0.06514
0.06532
0.07988
0.1025
0.128
0.122
0.1012
0.0897
0.09386
0.1074
0.1211
0.1323
0.1384
0.1373
0.1379
0.1389
0.1408
0.1447
0.1472
0.1538
0.1636
0.1754
0.1883
0.2056
0.223
0.252
0.2917
0.3377
0.3781
0.4079
0.4314
0.4529
0.4769
0.5005
0.519
0.5323
0.5428
0.5527
0.563
0.5765
0.5883
0.5984
0.6062
0.6136
0.62
0.6255
0.63
0.6347
0.639
0.6427
0.6468
0.6555
0.6706
0.6901
0.7092
0.7225
0.723
0.715
0.7008
0.6854
0.6725
0.6661
0.6631
0.6641
0.6663
0.6689
0.6713
0.6735
0.6756
0.6775
0.6795
0.6817
0.6842
0.6878
0.6928
0.6994
0.707
0.7157
0.7243
0.7337
0.7424
0.7514
0.76
0.7672
0.7733
0.7788
0.7846
0.7913
0.8005
0.8102
0.8196
0.8289
0.8374
0.8448
0.8516
0.8578
0.8632
0.8685
0.8733
0.8777
0.8817
0.8855
0.8892
0.8929
0.8963
0.8994
0.9024
0.9051
0.9077
0.9101
0.9124
0.9144
0.9163
0.918
0.9195
0.9205
0.9211
0.9227
0.9271
0.9347
0.9425
0.9509
0.9574
0.9623
0.9644
0.9654
0.9625
0.9582
0.9551
0.9468
0.9318
0.9033
0.08074
0.1788
0.4104
0.6673
0.7639
0.8099
0.8042
0.7553
0.7439
0.7614
0.7535
0.5233
0.0804
0.004458
0.0003542
9.382e-05
0.0001184
0.0003305
0.001311
0.004206
0.01454
0.03613
0.0773
0.1336
0.1834
0.1502
0.1247
0.09474
0.0812
0.08288
0.1054
0.1329
0.1567
0.1459
0.1216
0.1108
0.1143
0.1227
0.1311
0.134
0.1328
0.1305
0.1297
0.1301
0.1326
0.1356
0.1367
0.1424
0.1476
0.1585
0.1686
0.1881
0.2062
0.234
0.2652
0.2985
0.3269
0.3505
0.371
0.3888
0.4151
0.4438
0.4679
0.4855
0.4999
0.5101
0.5209
0.5339
0.5439
0.5512
0.5589
0.5671
0.575
0.582
0.5872
0.5911
0.5945
0.5979
0.6013
0.6081
0.6197
0.633
0.6458
0.6545
0.6534
0.646
0.6358
0.625
0.6167
0.6128
0.6104
0.6109
0.6128
0.6156
0.6179
0.6199
0.6216
0.6241
0.6273
0.6312
0.6358
0.6421
0.6497
0.6596
0.6705
0.6823
0.6933
0.7042
0.7144
0.7244
0.7338
0.7418
0.7489
0.7558
0.7632
0.7714
0.7819
0.7927
0.8034
0.814
0.8239
0.8335
0.8428
0.8514
0.8585
0.8646
0.8695
0.874
0.878
0.882
0.8858
0.8895
0.8929
0.896
0.8988
0.9015
0.904
0.9063
0.9084
0.9102
0.9119
0.9133
0.9144
0.9149
0.9166
0.9211
0.929
0.9393
0.949
0.9564
0.96
0.9615
0.9593
0.9561
0.948
0.9395
0.9292
0.917
0.8981
0.869
0.0874
0.1772
0.3945
0.6453
0.7588
0.812
0.8197
0.7902
0.7449
0.6956
0.6108
0.3462
0.08137
0.01089
0.001813
0.0007418
0.001102
0.003241
0.011
0.03027
0.06562
0.1003
0.1388
0.1719
0.1873
0.1612
0.1432
0.1058
0.0886
0.08637
0.09801
0.1153
0.1372
0.135
0.1206
0.1163
0.1205
0.1294
0.1393
0.1457
0.148
0.1471
0.1472
0.148
0.1501
0.1522
0.1529
0.1571
0.1606
0.1688
0.1791
0.1952
0.2117
0.2352
0.2586
0.2814
0.2979
0.3128
0.3268
0.3406
0.3652
0.3954
0.4241
0.4445
0.4617
0.4699
0.4788
0.4894
0.4965
0.5024
0.5104
0.5188
0.5268
0.5337
0.5384
0.5418
0.5445
0.5488
0.553
0.5597
0.5675
0.5752
0.5819
0.5857
0.5845
0.5802
0.5754
0.5703
0.5649
0.5608
0.5567
0.5537
0.5526
0.5538
0.5552
0.5573
0.5605
0.5641
0.5696
0.5761
0.5839
0.5936
0.6044
0.6179
0.6322
0.6463
0.6595
0.672
0.6836
0.695
0.7057
0.7154
0.7245
0.7333
0.7424
0.7519
0.7631
0.7741
0.7845
0.7956
0.8064
0.8182
0.8304
0.8419
0.8513
0.8591
0.8646
0.8689
0.8731
0.8771
0.881
0.8847
0.8879
0.8909
0.8936
0.8961
0.8984
0.9005
0.9024
0.904
0.9054
0.9064
0.909
0.912
0.9173
0.9251
0.9348
0.9449
0.9533
0.9577
0.957
0.9538
0.9456
0.9359
0.92
0.9058
0.8905
0.8769
0.8584
0.8335
0.09535
0.1828
0.3889
0.6345
0.7659
0.8195
0.8332
0.822
0.7681
0.6463
0.471
0.2419
0.08921
0.02889
0.01029
0.00641
0.01019
0.02502
0.05453
0.09528
0.1316
0.1421
0.1639
0.1803
0.1877
0.1752
0.1677
0.1336
0.1117
0.1033
0.1044
0.109
0.1225
0.1305
0.1303
0.1338
0.1389
0.1466
0.1546
0.1611
0.1655
0.1676
0.1704
0.1734
0.1765
0.1796
0.1826
0.1872
0.1926
0.1995
0.2089
0.2192
0.2305
0.2447
0.2577
0.2716
0.2846
0.2955
0.3049
0.315
0.3341
0.3612
0.3896
0.4092
0.4276
0.4325
0.4379
0.4437
0.4511
0.4573
0.4674
0.4746
0.4795
0.4831
0.4859
0.4895
0.4926
0.4972
0.5017
0.5088
0.5149
0.5196
0.5237
0.5261
0.5249
0.5243
0.5223
0.5194
0.516
0.5128
0.5053
0.4978
0.4918
0.4886
0.4882
0.4902
0.4944
0.5
0.5093
0.5208
0.534
0.5486
0.5642
0.5807
0.5975
0.6124
0.6262
0.6394
0.6525
0.6658
0.6789
0.6909
0.7021
0.7129
0.7237
0.7344
0.7456
0.7563
0.7664
0.7774
0.7882
0.8003
0.8148
0.8298
0.842
0.8516
0.858
0.8623
0.8664
0.8705
0.8743
0.8778
0.8809
0.8836
0.886
0.8883
0.8905
0.8924
0.8964
0.9015
0.9064
0.9103
0.9151
0.9185
0.9244
0.9321
0.9413
0.9482
0.953
0.9526
0.9459
0.9353
0.9167
0.8991
0.8796
0.862
0.8418
0.8313
0.8231
0.8087
0.09552
0.1734
0.3684
0.6245
0.7768
0.8258
0.8435
0.8424
0.7901
0.6492
0.4026
0.1862
0.09264
0.05692
0.03571
0.03162
0.04386
0.08558
0.1334
0.1649
0.1662
0.1543
0.1634
0.1764
0.1954
0.1959
0.1916
0.1637
0.1397
0.116
0.1037
0.09843
0.1031
0.1152
0.1283
0.1419
0.1517
0.1605
0.1685
0.1753
0.181
0.1876
0.1937
0.1994
0.2031
0.2081
0.2153
0.2211
0.2269
0.2306
0.2364
0.2421
0.2517
0.2617
0.2719
0.2816
0.2904
0.2975
0.3043
0.3124
0.3264
0.346
0.3664
0.3844
0.4003
0.4026
0.4031
0.4045
0.4105
0.4174
0.4288
0.4336
0.4343
0.4355
0.4372
0.4406
0.4433
0.4468
0.4485
0.4516
0.4542
0.4565
0.4602
0.4632
0.4607
0.4584
0.4546
0.4516
0.4515
0.4522
0.4443
0.4358
0.4269
0.4193
0.4189
0.4234
0.4311
0.4425
0.4585
0.4745
0.4926
0.511
0.5298
0.5483
0.5666
0.5821
0.597
0.6117
0.6269
0.642
0.657
0.6709
0.6843
0.6971
0.7095
0.7213
0.7324
0.7425
0.7518
0.7616
0.7715
0.7829
0.7977
0.8137
0.8287
0.8404
0.8485
0.8533
0.8573
0.8613
0.8651
0.8684
0.8739
0.8805
0.8871
0.8928
0.8969
0.8984
0.9033
0.9072
0.9101
0.911
0.9137
0.9153
0.9224
0.9293
0.9377
0.9428
0.9445
0.9392
0.9249
0.9017
0.8751
0.8508
0.8327
0.8211
0.8101
0.8061
0.8035
0.7902
0.08504
0.1534
0.3289
0.6086
0.783
0.829
0.8472
0.8504
0.8133
0.6832
0.4386
0.1891
0.1005
0.07198
0.06731
0.07645
0.0982
0.1563
0.2062
0.214
0.1852
0.1629
0.1633
0.177
0.1979
0.199
0.1915
0.1662
0.1441
0.1237
0.1036
0.09119
0.08904
0.09598
0.1087
0.1263
0.1413
0.1531
0.1656
0.1762
0.1853
0.194
0.203
0.212
0.2196
0.2297
0.2422
0.2518
0.2579
0.2609
0.2623
0.2642
0.2717
0.2785
0.287
0.2962
0.3057
0.3132
0.3206
0.3282
0.3375
0.349
0.3602
0.3713
0.3855
0.3852
0.3829
0.3791
0.3803
0.3838
0.3956
0.3983
0.3967
0.3961
0.3962
0.398
0.3986
0.3981
0.3963
0.3945
0.3906
0.3876
0.3858
0.3858
0.3808
0.3765
0.3706
0.3685
0.3692
0.3722
0.3614
0.3526
0.3458
0.3446
0.3489
0.3594
0.3694
0.3874
0.4121
0.4352
0.4579
0.4789
0.5002
0.52
0.5393
0.5559
0.5729
0.5895
0.6061
0.6226
0.6386
0.6536
0.6682
0.6828
0.6962
0.7091
0.7208
0.7315
0.7414
0.7508
0.7593
0.768
0.7803
0.7968
0.8167
0.8349
0.8489
0.8577
0.863
0.8668
0.8704
0.8738
0.8808
0.8891
0.8951
0.8983
0.899
0.8966
0.8996
0.9028
0.9057
0.905
0.9057
0.9052
0.9103
0.9155
0.9221
0.9239
0.9204
0.908
0.8837
0.8524
0.8257
0.8086
0.7994
0.7937
0.7851
0.7756
0.7674
0.7545
0.07686
0.1392
0.3067
0.5986
0.7867
0.829
0.8426
0.8415
0.8146
0.7003
0.4649
0.1933
0.09904
0.0761
0.08034
0.09569
0.1131
0.1628
0.2079
0.2191
0.1884
0.1665
0.1725
0.194
0.2112
0.1948
0.1689
0.135
0.1091
0.0935
0.08279
0.07277
0.07302
0.08027
0.08988
0.1048
0.1214
0.1367
0.1547
0.1672
0.1754
0.1813
0.1879
0.1958
0.2069
0.2208
0.2365
0.2504
0.2609
0.2688
0.2737
0.2788
0.2862
0.2919
0.2968
0.3028
0.3113
0.32
0.3295
0.3395
0.3487
0.357
0.3643
0.3723
0.3856
0.3851
0.3762
0.3646
0.3553
0.3514
0.3615
0.3643
0.362
0.3598
0.3579
0.3552
0.3524
0.3476
0.3415
0.3351
0.326
0.3198
0.3156
0.3123
0.3047
0.2956
0.2855
0.2827
0.2846
0.2855
0.2762
0.2741
0.2773
0.2863
0.2968
0.3106
0.3209
0.3414
0.3707
0.3991
0.4239
0.4463
0.4697
0.4925
0.5147
0.5344
0.5537
0.5725
0.5904
0.6075
0.6239
0.6396
0.6551
0.6703
0.6843
0.6977
0.7116
0.7255
0.7386
0.7505
0.7601
0.7672
0.776
0.7901
0.8099
0.8322
0.8514
0.8648
0.873
0.878
0.8794
0.8791
0.8823
0.888
0.8926
0.8947
0.8932
0.8882
0.8889
0.8903
0.8897
0.8847
0.8825
0.8801
0.8836
0.8851
0.8875
0.8829
0.8717
0.8469
0.8197
0.7924
0.7794
0.7768
0.7727
0.7625
0.7474
0.7322
0.7197
0.7084
0.07765
0.1367
0.3048
0.5973
0.7791
0.8167
0.8289
0.8236
0.8031
0.7207
0.5359
0.2495
0.1245
0.09146
0.08883
0.1085
0.1253
0.1639
0.1992
0.2119
0.1889
0.1772
0.1893
0.2091
0.2135
0.171
0.122
0.08536
0.06353
0.05592
0.05641
0.05994
0.065
0.07368
0.08076
0.0895
0.1018
0.1151
0.1362
0.1497
0.1556
0.155
0.1565
0.1617
0.1745
0.1896
0.2069
0.2244
0.2409
0.2549
0.2646
0.2723
0.2794
0.2841
0.2876
0.2917
0.2979
0.3042
0.3127
0.3232
0.336
0.3468
0.3563
0.3662
0.3814
0.3793
0.3679
0.349
0.3331
0.3246
0.3332
0.3361
0.3338
0.3306
0.326
0.3216
0.3174
0.3116
0.3047
0.2966
0.2846
0.2768
0.2705
0.2643
0.2522
0.2393
0.2256
0.2183
0.2181
0.2192
0.2147
0.2166
0.225
0.2394
0.2551
0.2711
0.2823
0.3022
0.332
0.3632
0.3921
0.418
0.4442
0.4699
0.4944
0.5168
0.5381
0.5589
0.5782
0.597
0.615
0.6324
0.6491
0.6658
0.6812
0.6955
0.7112
0.7269
0.7416
0.7544
0.7646
0.7713
0.7779
0.7894
0.8072
0.8302
0.8532
0.8709
0.8803
0.8845
0.8819
0.8763
0.8744
0.8772
0.8773
0.8771
0.8712
0.8631
0.8607
0.8601
0.8572
0.852
0.8464
0.8384
0.836
0.8294
0.8237
0.8093
0.7832
0.755