/*--------------------------------*- C++ -*----------------------------------*\
| =========                 |                                                 |
| \\      /  F ield         | OpenFOAM: The Open Source CFD Toolbox           |
|  \\    /   O peration     | Version:  5.x                                   |
|   \\  /    A nd           | Web:      www.OpenFOAM.org                      |
|    \\/     M anipulation  |                                                 |
\*---------------------------------------------------------------------------*/
FoamFile
{
    version     2.0;
    format      ascii;
    class       volScalarField;
    location    "80";
    object      gamma;
}
// * * * * * * * * * * * * * * * * * * * * * * * * * * * * * * * * * * * * * //

dimensions      [0 0 0 0 0 0 0];

internalField   nonuniform List<scalar> 
86400
(
0.0002342
0.000275
0.0003652
0.00054
0.0008656
0.001258
0.001683
0.002333
0.003703
0.006012
0.01028
0.01659
0.02646
0.03602
0.04742
0.05411
0.05801
0.05136
0.04029
0.03001
0.02239
0.01789
0.01639
0.01604
0.01619
0.0186
0.01858
0.01831
0.01708
0.01636
0.01575
0.01637
0.01718
0.01806
0.01913
0.02122
0.02097
0.01941
0.01617
0.0147
0.01359
0.01415
0.0138
0.01254
0.01221
0.01283
0.01462
0.01585
0.01673
0.01596
0.01577
0.01596
0.01631
0.01678
0.01697
0.01788
0.01891
0.01918
0.01868
0.0179
0.01609
0.01556
0.0147
0.01482
0.01639
0.01891
0.01982
0.01988
0.01741
0.01621
0.01732
0.02
0.02064
0.01882
0.01723
0.01589
0.01472
0.01582
0.01784
0.01823
0.01856
0.01755
0.01666
0.01751
0.0204
0.02197
0.02313
0.02287
0.02329
0.02355
0.02252
0.02442
0.02773
0.03436
0.03877
0.04111
0.03759
0.03587
0.03509
0.03482
0.03486
0.03199
0.02849
0.02361
0.01962
0.01971
0.02439
0.03163
0.0327
0.02881
0.02156
0.01716
0.01602
0.01637
0.01637
0.01621
0.0161
0.01604
0.01628
0.0166
0.01685
0.01691
0.01677
0.01637
0.01615
0.01613
0.01592
0.01563
0.01526
0.01476
0.014
0.01474
0.01592
0.01754
0.01919
0.02098
0.02225
0.02358
0.01779
0.01117
0.00785
0.006898
0.008172
0.01004
0.01073
0.009158
0.009233
0.00975
0.01042
0.01047
0.009438
0.00892
0.009961
0.009577
0.009071
0.008937
0.009971
0.01735
0.6969
0.9887
0.0002881
0.0003078
0.000384
0.0005303
0.0008769
0.001388
0.002037
0.003051
0.00493
0.008089
0.01459
0.02392
0.03653
0.04773
0.05831
0.06442
0.07103
0.06839
0.05809
0.04668
0.03652
0.03077
0.02837
0.0278
0.02819
0.02924
0.02912
0.02866
0.02804
0.02664
0.02556
0.02604
0.02693
0.028
0.02935
0.03204
0.03245
0.03153
0.02878
0.0273
0.02553
0.02558
0.02497
0.02294
0.02143
0.02142
0.02195
0.02255
0.02327
0.02297
0.02342
0.02446
0.02583
0.02683
0.02509
0.02317
0.02134
0.0197
0.01822
0.01767
0.016
0.01527
0.01399
0.01352
0.0141
0.01643
0.01666
0.0166
0.01481
0.01449
0.01592
0.01797
0.01669
0.01487
0.01361
0.01469
0.01809
0.02367
0.02782
0.02772
0.02694
0.02544
0.02576
0.02784
0.03307
0.03642
0.03917
0.03881
0.03977
0.04094
0.04064
0.04353
0.04704
0.0504
0.05176
0.05085
0.04571
0.04287
0.04149
0.04074
0.04228
0.04363
0.04531
0.04324
0.03723
0.03524
0.04052
0.04903
0.05453
0.05224
0.04023
0.03206
0.0293
0.02988
0.03005
0.03007
0.03027
0.03062
0.03171
0.03297
0.03412
0.03479
0.03494
0.0343
0.03398
0.03403
0.03342
0.03259
0.03156
0.03042
0.02897
0.03052
0.03302
0.03764
0.04159
0.04332
0.0424
0.04071
0.03163
0.02201
0.01901
0.01744
0.01841
0.02156
0.02279
0.02102
0.02185
0.02375
0.02585
0.02434
0.02035
0.01783
0.01858
0.02104
0.02765
0.04041
0.06706
0.1607
0.7274
0.9572
0.0004113
0.0004126
0.000484
0.000638
0.001082
0.001803
0.002768
0.004338
0.006835
0.01145
0.02055
0.03434
0.05306
0.07186
0.08067
0.08312
0.08775
0.08214
0.06967
0.05733
0.04413
0.03729
0.03616
0.03628
0.03572
0.03857
0.04102
0.04432
0.04869
0.05005
0.04852
0.04984
0.04836
0.04526
0.04181
0.04038
0.03864
0.03764
0.03499
0.03473
0.0347
0.03677
0.03698
0.03604
0.03394
0.03369
0.03373
0.0339
0.03449
0.03499
0.0327
0.02948
0.02664
0.02449
0.02136
0.02034
0.01885
0.01717
0.01598
0.0158
0.01507
0.01502
0.01455
0.01505
0.01475
0.0148
0.01368
0.01296
0.01136
0.0115
0.01229
0.01238
0.01096
0.01107
0.01275
0.01846
0.02879
0.0403
0.04655
0.04703
0.04463
0.0407
0.04067
0.04381
0.05306
0.0584
0.06307
0.06324
0.05987
0.05439
0.04715
0.04264
0.03979
0.04306
0.04697
0.05067
0.0518
0.05263
0.05065
0.04973
0.05269
0.05773
0.06472
0.06605
0.06166
0.06003
0.06566
0.07828
0.09052
0.08978
0.07575
0.06535
0.05973
0.06075
0.06155
0.06251
0.06065
0.0573
0.05475
0.05321
0.05352
0.05534
0.05603
0.05533
0.05506
0.05533
0.05448
0.0532
0.05115
0.04952
0.04767
0.0498
0.05303
0.05793
0.06401
0.06661
0.06585
0.06347
0.05491
0.04509
0.04229
0.04059
0.04234
0.04672
0.04875
0.04474
0.04283
0.0427
0.0441
0.04092
0.03716
0.03487
0.04221
0.06027
0.108
0.2309
0.4848
0.7269
0.8925
0.9654
0.0006791
0.0006678
0.0007572
0.0009892
0.001693
0.00284
0.004262
0.006403
0.009772
0.01641
0.0255
0.0274
0.02998
0.03422
0.03729
0.04507
0.05903
0.0437
0.02866
0.01981
0.01364
0.01124
0.01372
0.01649
0.01788
0.02234
0.02838
0.03541
0.04603
0.05519
0.05537
0.0604
0.06014
0.0569
0.05136
0.04735
0.04435
0.04449
0.04295
0.04629
0.05179
0.06145
0.07109
0.07691
0.06561
0.05341
0.04155
0.03327
0.02914
0.02948
0.0257
0.02163
0.01976
0.01831
0.01588
0.01519
0.01376
0.01269
0.01295
0.01428
0.01495
0.01612
0.01672
0.01683
0.0155
0.01439
0.01185
0.01023
0.008809
0.009746
0.01151
0.01184
0.01157
0.01319
0.01563
0.02523
0.04188
0.05518
0.05726
0.05849
0.05452
0.05069
0.05175
0.05498
0.06111
0.06551
0.06976
0.07042
0.06955
0.06888
0.06659
0.06331
0.05769
0.06092
0.06526
0.07167
0.07766
0.08217
0.07836
0.07721
0.07647
0.07719
0.08807
0.09363
0.0892
0.08789
0.08955
0.1024
0.1201
0.1324
0.119
0.1096
0.1008
0.1028
0.1063
0.1121
0.1102
0.1044
0.09829
0.09396
0.09237
0.0966
0.09857
0.09816
0.09837
0.09942
0.09853
0.0969
0.0948
0.09279
0.09068
0.09412
0.09973
0.109
0.1115
0.1019
0.08801
0.07395
0.06764
0.06836
0.07138
0.07235
0.07435
0.07701
0.08238
0.08161
0.08018
0.08167
0.08862
0.08921
0.09678
0.1074
0.15
0.2696
0.5576
0.7741
0.8898
0.952
0.9819
0.9935
0.001307
0.001406
0.001665
0.002274
0.003692
0.00553
0.006914
0.009538
0.01332
0.01903
0.02081
0.01268
0.008559
0.008973
0.01123
0.01716
0.02864
0.01699
0.008751
0.005838
0.004597
0.004067
0.005995
0.007138
0.007895
0.01195
0.02056
0.03514
0.05479
0.06362
0.04913
0.04195
0.035
0.03078
0.02907
0.02722
0.02462
0.02795
0.03381
0.04663
0.05619
0.06009
0.05073
0.04272
0.0305
0.02285
0.01515
0.0124
0.01233
0.01571
0.01653
0.0166
0.01547
0.01493
0.01339
0.01285
0.01181
0.01135
0.01355
0.01729
0.02083
0.02449
0.02777
0.02795
0.02277
0.01691
0.01236
0.00957
0.007872
0.008452
0.01003
0.0099
0.01115
0.0148
0.02029
0.03031
0.04673
0.05305
0.05232
0.05708
0.05478
0.0513
0.05308
0.0584
0.0671
0.07618
0.08333
0.08421
0.08632
0.08915
0.08643
0.0866
0.08278
0.09048
0.1014
0.1234
0.1385
0.149
0.1418
0.1298
0.1074
0.0854
0.08282
0.08642
0.08829
0.103
0.1137
0.1214
0.1357
0.1628
0.1532
0.1493
0.1413
0.1444
0.1366
0.1264
0.1069
0.08935
0.07559
0.07343
0.07207
0.07531
0.07666
0.07684
0.07749
0.0787
0.07905
0.07912
0.07928
0.07966
0.07998
0.08093
0.08203
0.08613
0.08233
0.07344
0.06504
0.06001
0.05908
0.06586
0.07264
0.07631
0.08001
0.08683
0.09974
0.1058
0.1109
0.1155
0.1375
0.1642
0.2323
0.3517
0.5305
0.7088
0.851
0.9308
0.9694
0.9871
0.9947
0.9977
0.002247
0.002825
0.003715
0.005641
0.008428
0.01052
0.0108
0.01257
0.01534
0.01811
0.01466
0.005662
0.002289
0.001895
0.003159
0.006325
0.01212
0.007605
0.003978
0.003032
0.003213
0.003272
0.005362
0.004102
0.003102
0.003488
0.005573
0.01044
0.02189
0.02455
0.01738
0.01381
0.01166
0.01099
0.01286
0.01341
0.011
0.01131
0.01343
0.0148
0.01307
0.0114
0.007248
0.00498
0.003395
0.001929
0.0007594
0.0005563
0.0006061
0.0009831
0.001356
0.002021
0.002703
0.003276
0.00346
0.003146
0.00267
0.00296
0.00547
0.01023
0.01646
0.02058
0.01991
0.01869
0.01523
0.01179
0.01192
0.01177
0.01082
0.0124
0.01554
0.01498
0.01734
0.0229
0.02824
0.03657
0.04861
0.05477
0.0594
0.07404
0.08272
0.08865
0.09759
0.1112
0.127
0.1421
0.1536
0.1558
0.1653
0.1824
0.2032
0.2053
0.1934
0.1996
0.2142
0.2428
0.2639
0.2747
0.2567
0.2321
0.185
0.1358
0.1172
0.1129
0.11
0.1183
0.1083
0.1054
0.1095
0.1196
0.1069
0.102
0.09532
0.09576
0.0857
0.07549
0.06172
0.05164
0.04492
0.04485
0.04372
0.04461
0.04486
0.04529
0.04611
0.04728
0.04879
0.0508
0.05339
0.05632
0.05886
0.06101
0.06378
0.06981
0.06917
0.06575
0.05931
0.05911
0.06203
0.07302
0.08225
0.08885
0.09756
0.1123
0.1386
0.1629
0.1938
0.2391
0.3274
0.4607
0.6078
0.7219
0.8174
0.8942
0.9471
0.9756
0.9891
0.9949
0.9975
0.9987
0.003675
0.005222
0.007407
0.0114
0.0155
0.01706
0.01556
0.01643
0.01928
0.01837
0.01059
0.003103
0.0008645
0.0007344
0.001025
0.002537
0.006016
0.005916
0.004225
0.004686
0.006573
0.006473
0.008804
0.004186
0.002296
0.001891
0.002562
0.004258
0.009931
0.01107
0.007798
0.00549
0.005076
0.005714
0.007233
0.007142
0.004773
0.004164
0.005345
0.005598
0.003849
0.002367
0.001004
0.0005127
0.0003342
0.0001265
3.714e-05
2.495e-05
2.918e-05
6.252e-05
0.00011
0.0001916
0.0003042
0.0004449
0.0005195
0.000478
0.0004314
0.0005722
0.001565
0.003973
0.009192
0.01467
0.0162
0.01828
0.0191
0.01653
0.0204
0.02334
0.02388
0.02534
0.03283
0.03123
0.03994
0.05434
0.06522
0.07747
0.09234
0.09975
0.1085
0.1335
0.1547
0.174
0.2014
0.2376
0.2894
0.3274
0.3509
0.3503
0.3876
0.434
0.4597
0.4735
0.4726
0.4809
0.5002
0.5299
0.5357
0.5258
0.492
0.4504
0.3598
0.2494
0.2193
0.2033
0.1855
0.1829
0.1603
0.1288
0.1181
0.1157
0.09898
0.08909
0.08019
0.07752
0.06654
0.05632
0.04334
0.03706
0.03346
0.03471
0.03453
0.03493
0.03524
0.03599
0.0372
0.03876
0.04072
0.04337
0.04694
0.05119
0.05547
0.0597
0.06487
0.07375
0.07795
0.08411
0.09301
0.1064
0.1242
0.1545
0.1794
0.2042
0.239
0.2941
0.3868
0.4746
0.5544
0.6282
0.7014
0.7713
0.8354
0.8892
0.9328
0.9631
0.9815
0.9911
0.9953
0.9973
0.9984
0.999
0.007061
0.0102
0.01401
0.02046
0.02604
0.02608
0.02274
0.02335
0.02216
0.01485
0.007139
0.001984
0.0005337
0.0004564
0.0006732
0.001849
0.005372
0.008632
0.009889
0.01546
0.02002
0.01867
0.02129
0.01018
0.004855
0.002495
0.002725
0.003273
0.006036
0.006477
0.005022
0.004663
0.004522
0.005167
0.005804
0.005111
0.003147
0.002926
0.004132
0.003037
0.001515
0.0005864
0.0002259
9.608e-05
6.99e-05
2.246e-05
6.205e-06
4.23e-06
5.654e-06
1.34e-05
2.747e-05
5.947e-05
0.0001293
0.0002468
0.0003008
0.0001958
0.000127
0.0001339
0.0003476
0.001076
0.003761
0.009147
0.01371
0.01918
0.02379
0.02475
0.03399
0.04376
0.04815
0.0578
0.08037
0.08844
0.1119
0.1437
0.1643
0.1808
0.2024
0.2446
0.2905
0.365
0.4095
0.4434
0.4837
0.528
0.5716
0.599
0.6131
0.604
0.627
0.6612
0.6865
0.7116
0.7283
0.7347
0.7393
0.7438
0.7285
0.7044
0.673
0.6394
0.5915
0.5456
0.5201
0.4797
0.4101
0.3467
0.2943
0.236
0.2106
0.1823
0.1415
0.1131
0.09638
0.08863
0.07488
0.06412
0.05637
0.05262
0.05132
0.0556
0.05678
0.05693
0.05796
0.06031
0.06382
0.06821
0.0738
0.08093
0.09047
0.1022
0.1152
0.1295
0.147
0.1723
0.1956
0.2261
0.2686
0.3247
0.3963
0.4739
0.5303
0.5788
0.6268
0.6756
0.7271
0.779
0.8267
0.8661
0.8976
0.9214
0.9423
0.9619
0.9775
0.9877
0.9935
0.9962
0.9976
0.9983
0.9988
0.999
0.01401
0.01926
0.0237
0.03156
0.03669
0.03502
0.03174
0.02636
0.01731
0.008626
0.003493
0.00137
0.0007229
0.0008428
0.001471
0.003285
0.005994
0.009237
0.0116
0.01463
0.02047
0.0248
0.03542
0.02597
0.01596
0.009392
0.006561
0.006098
0.007721
0.007675
0.006316
0.007013
0.006262
0.006442
0.005291
0.003497
0.001724
0.001874
0.002568
0.001331
0.0005387
0.0001816
7.767e-05
3.846e-05
3.877e-05
1.726e-05
7.425e-06
5.857e-06
8.201e-06
1.099e-05
1.747e-05
3.046e-05
5.959e-05
0.0001114
0.0001478
0.0001065
6.375e-05
5.916e-05
0.0001255
0.0004411
0.00234
0.008629
0.019
0.03113
0.04166
0.04335
0.05961
0.0863
0.1031
0.1317
0.1739
0.1909
0.2284
0.3017
0.3952
0.4896
0.562
0.6314
0.6691
0.6921
0.7065
0.7218
0.7385
0.7546
0.7719
0.7804
0.7886
0.7881
0.793
0.7972
0.7973
0.8033
0.8194
0.8373
0.851
0.8581
0.8484
0.8274
0.797
0.7698
0.7514
0.7464
0.7412
0.7168
0.6835
0.6393
0.6009
0.5583
0.5211
0.4436
0.349
0.2694
0.2221
0.1955
0.1729
0.159
0.1492
0.1426
0.1374
0.1373
0.1347
0.1354
0.1398
0.1482
0.1606
0.1763
0.1974
0.225
0.262
0.3082
0.3627
0.4185
0.4716
0.5253
0.5837
0.6429
0.6971
0.7422
0.7772
0.8049
0.8292
0.8512
0.8716
0.8901
0.9076
0.9245
0.9396
0.9521
0.9618
0.9687
0.9774
0.9857
0.9919
0.9956
0.9973
0.9981
0.9985
0.9989
0.9991
0.9991
0.02436
0.02974
0.03476
0.04431
0.04812
0.04348
0.03202
0.01836
0.00832
0.003848
0.001689
0.001154
0.001186
0.001936
0.003792
0.006228
0.01009
0.01017
0.009555
0.007892
0.009482
0.01323
0.02455
0.03266
0.03025
0.02094
0.01261
0.01038
0.009033
0.009607
0.01023
0.01332
0.01177
0.01073
0.00567
0.003038
0.001819
0.002139
0.002028
0.0007424
0.0002528
8.034e-05
4.297e-05
3.336e-05
3.938e-05
2.379e-05
1.878e-05
2.022e-05
2.05e-05
1.688e-05
1.624e-05
1.79e-05
3.786e-05
9.206e-05
0.0001459
0.0001327
0.0001008
8.93e-05
0.0001508
0.0005419
0.002771
0.01238
0.03055
0.05651
0.08231
0.09318
0.1139
0.1673
0.2148
0.3083
0.423
0.5038
0.5711
0.6477
0.6962
0.738
0.7688
0.7954
0.8091
0.8146
0.8186
0.8241
0.8297
0.8328
0.8376
0.8406
0.8454
0.8487
0.8537
0.8562
0.8617
0.8732
0.8921
0.906
0.915
0.9156
0.9054
0.8872
0.865
0.8476
0.8411
0.8429
0.8403
0.8239
0.798
0.7734
0.7573
0.7414
0.7235
0.6802
0.6279
0.568
0.514
0.4679
0.4557
0.4736
0.4974
0.5138
0.5161
0.502
0.4937
0.5018
0.5192
0.5443
0.5749
0.6069
0.6401
0.6725
0.7031
0.7311
0.757
0.7811
0.803
0.8233
0.8433
0.8622
0.8793
0.8948
0.908
0.9195
0.9303
0.9401
0.9486
0.9558
0.9623
0.9684
0.974
0.9786
0.9821
0.9845
0.9891
0.9935
0.9965
0.9979
0.9985
0.9987
0.9989
0.9992
0.9992
0.9989
0.03553
0.04074
0.04686
0.05903
0.05767
0.03526
0.01536
0.005789
0.002207
0.001267
0.001014
0.001214
0.002271
0.004993
0.007668
0.01095
0.01212
0.007961
0.006034
0.00394
0.004483
0.005936
0.01442
0.03028
0.04169
0.03675
0.03138
0.02498
0.01728
0.01615
0.01419
0.01365
0.00939
0.007084
0.00372
0.002046
0.001595
0.002489
0.001981
0.0007756
0.0002162
7.88e-05
3.488e-05
2.666e-05
2.542e-05
2.776e-05
6.002e-05
0.0001024
0.0001055
5.28e-05
2.159e-05
1.377e-05
3.015e-05
0.0001145
0.0003214
0.0006122
0.0006826
0.0006109
0.0008628
0.002777
0.01099
0.03877
0.09454
0.1711
0.2281
0.2503
0.2732
0.354
0.4392
0.5375
0.6085
0.6853
0.7392
0.787
0.8132
0.8324
0.8463
0.8549
0.858
0.8564
0.8576
0.8627
0.8694
0.8741
0.879
0.8843
0.8908
0.8973
0.9042
0.9102
0.919
0.9302
0.9419
0.9482
0.9508
0.9468
0.9374
0.9237
0.9101
0.8964
0.8875
0.8817
0.875
0.8662
0.8601
0.856
0.8546
0.8511
0.844
0.8274
0.8068
0.7828
0.7612
0.7419
0.7362
0.743
0.7528
0.7568
0.7547
0.7485
0.748
0.7568
0.7697
0.7856
0.8033
0.8211
0.8383
0.8541
0.8684
0.8813
0.8933
0.9046
0.9146
0.9236
0.9319
0.9395
0.9462
0.9523
0.9577
0.9625
0.9672
0.9715
0.9753
0.9785
0.9813
0.9839
0.9863
0.9882
0.9896
0.9904
0.9931
0.9959
0.9978
0.9986
0.999
0.999
0.9991
0.9991
0.9989
0.9983
0.04334
0.04885
0.05647
0.06655
0.05728
0.02816
0.008229
0.002449
0.0009103
0.0008539
0.001111
0.002774
0.006424
0.01051
0.0136
0.01769
0.01502
0.01028
0.006429
0.003442
0.003782
0.006132
0.01689
0.03525
0.05078
0.04629
0.04438
0.03616
0.02773
0.02393
0.02
0.01566
0.009275
0.005536
0.00371
0.0024
0.002229
0.003705
0.00223
0.0007891
0.0002015
5.753e-05
2.11e-05
1.691e-05
1.284e-05
2.013e-05
5.907e-05
0.0001698
0.0001812
8.488e-05
2.473e-05
1.565e-05
4.098e-05
0.0002264
0.0009796
0.002382
0.003723
0.004659
0.007297
0.01904
0.04547
0.1005
0.1764
0.2602
0.3171
0.3943
0.4466
0.5296
0.6085
0.6818
0.7334
0.7821
0.8182
0.845
0.8557
0.8619
0.8677
0.8731
0.88
0.886
0.8925
0.8996
0.9065
0.9128
0.9195
0.9253
0.9319
0.9388
0.9449
0.9505
0.9567
0.9615
0.9647
0.9641
0.9608
0.9526
0.9435
0.934
0.9257
0.9172
0.9113
0.9061
0.9007
0.8958
0.894
0.8933
0.8937
0.8927
0.8886
0.8813
0.8725
0.8626
0.8528
0.8447
0.8429
0.8473
0.852
0.856
0.8587
0.8594
0.8631
0.8711
0.8802
0.8904
0.9011
0.9113
0.9206
0.9285
0.9355
0.9416
0.9473
0.9527
0.9574
0.9616
0.9655
0.9692
0.9724
0.9754
0.978
0.9802
0.9824
0.9843
0.9861
0.9876
0.9889
0.9901
0.9912
0.9922
0.9928
0.9931
0.9946
0.9964
0.9978
0.9984
0.9988
0.9988
0.9988
0.9988
0.9983
0.9968
0.04286
0.05046
0.05735
0.05766
0.04138
0.0181
0.00474
0.001556
0.001039
0.001354
0.002699
0.007466
0.0122
0.01639
0.01845
0.019
0.01578
0.01129
0.006264
0.003358
0.003552
0.00618
0.01509
0.02893
0.04188
0.04051
0.04484
0.04117
0.03711
0.033
0.02863
0.02073
0.01358
0.009517
0.006574
0.00474
0.004678
0.006715
0.003462
0.001466
0.0004671
0.0001497
4.575e-05
3.789e-05
2.577e-05
4.537e-05
0.0001558
0.0005314
0.0004878
0.0002387
5.196e-05
2.618e-05
5.645e-05
0.000353
0.001623
0.00584
0.01491
0.02517
0.04978
0.1103
0.1751
0.2388
0.2916
0.3562
0.432
0.5206
0.5858
0.654
0.7115
0.7581
0.7934
0.8216
0.8439
0.8591
0.8657
0.8717
0.8781
0.886
0.8961
0.907
0.9176
0.9268
0.9337
0.9388
0.9428
0.9461
0.9502
0.9563
0.9626
0.9674
0.9713
0.9727
0.9715
0.9677
0.9616
0.9532
0.9455
0.939
0.934
0.9288
0.9249
0.9213
0.9185
0.9164
0.9149
0.9129
0.9107
0.9081
0.9057
0.9037
0.9013
0.8982
0.8949
0.8925
0.8933
0.8976
0.9022
0.9069
0.9114
0.9153
0.9205
0.9268
0.9333
0.9396
0.9459
0.9516
0.9565
0.9608
0.9645
0.9678
0.9708
0.9736
0.976
0.9782
0.9802
0.9821
0.9838
0.9853
0.9866
0.9877
0.9888
0.9898
0.9907
0.9915
0.9923
0.9929
0.9935
0.994
0.9943
0.9943
0.9948
0.9959
0.9971
0.998
0.9985
0.9985
0.9985
0.9979
0.9966
0.9939
0.03984
0.04923
0.05681
0.0488
0.03005
0.01314
0.004099
0.002224
0.002035
0.003324
0.006211
0.01293
0.01492
0.01639
0.01587
0.0157
0.01374
0.008967
0.005173
0.003489
0.003992
0.007039
0.01315
0.02176
0.02685
0.02694
0.03101
0.0294
0.02824
0.02932
0.02987
0.02589
0.0212
0.01582
0.01103
0.008185
0.007438
0.009771
0.007011
0.004593
0.00215
0.0009352
0.0003438
0.0002811
0.0001946
0.0003117
0.0007836
0.002289
0.00223
0.001336
0.000349
0.0002037
0.0003698
0.001499
0.00578
0.02121
0.05621
0.1057
0.1917
0.3098
0.3599
0.376
0.4163
0.4876
0.5565
0.6241
0.675
0.7159
0.7532
0.786
0.8138
0.8349
0.8507
0.8592
0.8649
0.8705
0.8774
0.8887
0.903
0.9178
0.9302
0.9418
0.9508
0.9575
0.9618
0.9629
0.9625
0.9633
0.9658
0.9677
0.9698
0.9694
0.966
0.9591
0.9519
0.9435
0.9381
0.9352
0.9331
0.9303
0.9274
0.9248
0.923
0.9219
0.9209
0.9199
0.919
0.9181
0.9175
0.9175
0.9175
0.9173
0.9175
0.9184
0.9203
0.9236
0.9275
0.9324
0.9378
0.9434
0.949
0.9541
0.9587
0.9628
0.9668
0.9702
0.9732
0.9757
0.9779
0.9798
0.9814
0.983
0.9844
0.9857
0.9869
0.9879
0.9889
0.9898
0.9906
0.9913
0.9919
0.9924
0.9929
0.9934
0.9938
0.9942
0.9946
0.9948
0.9949
0.9948
0.9947
0.9953
0.9964
0.9974
0.9982
0.9984
0.9982
0.997
0.9947
0.9904
0.03652
0.0479
0.05812
0.03628
0.01814
0.007746
0.003591
0.003738
0.006039
0.007113
0.008843
0.01083
0.01176
0.01293
0.01315
0.00969
0.004196
0.001626
0.000736
0.0005133
0.000809
0.002043
0.005054
0.01032
0.01643
0.01843
0.02014
0.01824
0.01559
0.01427
0.01524
0.01851
0.0223
0.0204
0.01514
0.01155
0.00995
0.01371
0.01361
0.01349
0.0106
0.007058
0.003762
0.003384
0.0025
0.003844
0.006501
0.01237
0.01135
0.00754
0.002959
0.001693
0.002157
0.005504
0.0177
0.05517
0.1302
0.2243
0.3299
0.42
0.463
0.4871
0.522
0.5727
0.6214
0.669
0.7096
0.7395
0.7686
0.7925
0.8131
0.8287
0.8401
0.8456
0.8505
0.8561
0.864
0.8773
0.8939
0.9148
0.9342
0.9524
0.9649
0.9723
0.975
0.9737
0.9689
0.9636
0.9601
0.9579
0.9573
0.9534
0.9471
0.9392
0.933
0.9275
0.9254
0.9244
0.9225
0.9203
0.9186
0.9175
0.9171
0.9171
0.9172
0.9171
0.9168
0.9165
0.9165
0.9175
0.9194
0.9219
0.9251
0.9288
0.9329
0.9374
0.9426
0.9481
0.9539
0.9594
0.9643
0.9684
0.9717
0.9745
0.977
0.9792
0.9811
0.9828
0.9843
0.9856
0.9867
0.9877
0.9887
0.9895
0.9903
0.9909
0.9915
0.9921
0.9925
0.993
0.9934
0.9937
0.9941
0.9944
0.9947
0.9949
0.9951
0.9952
0.9951
0.9951
0.9951
0.9956
0.9966
0.9975
0.9982
0.9985
0.9983
0.9972
0.995
0.9917
0.03178
0.04392
0.0594
0.02946
0.01238
0.006107
0.004596
0.007713
0.01389
0.01219
0.009605
0.007397
0.006056
0.009133
0.007113
0.002673
0.000824
0.000243
0.0001177
0.0001037
0.0002478
0.001002
0.003379
0.008228
0.01617
0.01745
0.01903
0.0168
0.01292
0.01105
0.01298
0.01928
0.02845
0.0315
0.02452
0.01857
0.01656
0.02118
0.02469
0.03022
0.03516
0.0336
0.02681
0.02793
0.02364
0.02302
0.02495
0.03008
0.02917
0.0255
0.01819
0.01287
0.01486
0.02311
0.05211
0.1186
0.239
0.3668
0.4547
0.4909
0.516
0.539
0.5718
0.6144
0.6569
0.6939
0.7244
0.7467
0.7681
0.7858
0.801
0.8126
0.8209
0.8245
0.8281
0.8337
0.8418
0.8547
0.8724
0.8988
0.9284
0.9553
0.9728
0.9814
0.983
0.9792
0.9693
0.9538
0.9397
0.9281
0.922
0.9155
0.9085
0.9023
0.9001
0.8984
0.8986
0.8977
0.8962
0.8952
0.8952
0.8961
0.8978
0.9001
0.9023
0.9041
0.9052
0.9061
0.9072
0.9094
0.9131
0.9175
0.9226
0.9284
0.9347
0.9413
0.9485
0.9555
0.9619
0.9675
0.9719
0.9753
0.9779
0.9801
0.9821
0.9838
0.9853
0.9866
0.9877
0.9886
0.9894
0.9902
0.9908
0.9914
0.992
0.9924
0.9928
0.9932
0.9936
0.9939
0.9942
0.9945
0.9947
0.9949
0.9951
0.9953
0.9953
0.9952
0.9952
0.9957
0.9961
0.9968
0.9975
0.9981
0.9984
0.9987
0.9987
0.9982
0.997
0.9948
0.02423
0.03501
0.05393
0.0254
0.009224
0.004513
0.005174
0.01037
0.01856
0.01587
0.009726
0.006555
0.005705
0.007651
0.002944
0.0006626
0.0001933
7.208e-05
5.75e-05
7.835e-05
0.0002576
0.001085
0.003735
0.009184
0.02039
0.0194
0.02204
0.01911
0.0132
0.01027
0.01124
0.01775
0.0285
0.03549
0.03148
0.02743
0.02873
0.03488
0.04477
0.0564
0.07109
0.08073
0.08262
0.08142
0.07079
0.05936
0.0516
0.0496
0.05211
0.04845
0.04273
0.0365
0.04207
0.06006
0.1245
0.235
0.3912
0.4698
0.5064
0.5234
0.5476
0.5743
0.6116
0.6529
0.6895
0.7191
0.7402
0.7543
0.7653
0.7737
0.7813
0.7878
0.7931
0.7954
0.7984
0.8034
0.8105
0.8207
0.8355
0.8653
0.9075
0.9469
0.9706
0.9805
0.9814
0.9747
0.9572
0.9259
0.8898
0.8604
0.8419
0.8325
0.8293
0.8297
0.834
0.836
0.8383
0.8403
0.8427
0.8466
0.8517
0.856
0.8614
0.8667
0.8711
0.8748
0.8775
0.88
0.8834
0.8885
0.8956
0.9037
0.9123
0.9211
0.9303
0.9402
0.9504
0.9594
0.9667
0.9722
0.9762
0.9791
0.9813
0.9831
0.9847
0.9861
0.9874
0.9885
0.9894
0.9902
0.9908
0.9914
0.992
0.9925
0.9929
0.9933
0.9936
0.9939
0.9942
0.9945
0.9947
0.9949
0.9951
0.9953
0.9954
0.9954
0.9952
0.9952
0.9956
0.9965
0.9973
0.998
0.9984
0.9987
0.9988
0.9991
0.9992
0.9989
0.9982
0.9963
0.01622
0.02498
0.03988
0.02105
0.008196
0.005855
0.007495
0.01545
0.02048
0.01564
0.008216
0.004876
0.003926
0.004001
0.0008643
0.0002183
9.876e-05
7.166e-05
9.949e-05
0.0001851
0.000659
0.002235
0.007355
0.01674
0.03397
0.02839
0.0286
0.02472
0.01845
0.01598
0.01701
0.02358
0.03613
0.043
0.04069
0.04066
0.04723
0.05552
0.06455
0.07522
0.09254
0.1089
0.1342
0.1345
0.1157
0.08849
0.06725
0.05905
0.06539
0.07092
0.07897
0.08809
0.1146
0.1623
0.256
0.369
0.4687
0.5047
0.5318
0.5552
0.5858
0.623
0.664
0.701
0.7304
0.7499
0.7583
0.7596
0.7566
0.7531
0.7527
0.7538
0.7561
0.7583
0.7606
0.762
0.7651
0.7693
0.7779
0.8065
0.862
0.9157
0.9527
0.9678
0.9688
0.9546
0.9209
0.8606
0.7903
0.7365
0.7081
0.7008
0.7073
0.7158
0.7239
0.7283
0.7357
0.7433
0.7531
0.759
0.7651
0.7685
0.7762
0.7868
0.7996
0.8099
0.8173
0.8255
0.8358
0.8484
0.8627
0.8772
0.8904
0.9032
0.9163
0.9302
0.9438
0.9566
0.9666
0.9738
0.9784
0.9813
0.9832
0.9847
0.9861
0.9874
0.9885
0.9895
0.9903
0.9911
0.9917
0.9922
0.9927
0.9931
0.9935
0.9938
0.9941
0.9944
0.9946
0.9948
0.995
0.9952
0.9953
0.9954
0.9953
0.9951
0.995
0.9954
0.9963
0.9974
0.9982
0.9987
0.9989
0.9989
0.9989
0.999
0.9991
0.9988
0.9981
0.9961
0.01325
0.0205
0.02947
0.0173
0.006701
0.006326
0.01013
0.02153
0.02418
0.01766
0.00946
0.004888
0.002778
0.00203
0.0004336
0.0001505
0.0001507
0.0002345
0.000457
0.0009679
0.002891
0.007347
0.01996
0.04009
0.06629
0.05046
0.04462
0.03532
0.02652
0.02258
0.02484
0.0323
0.047
0.05588
0.05442
0.0557
0.06839
0.08231
0.09087
0.0958
0.1034
0.1094
0.1264
0.1341
0.1295
0.1144
0.09913
0.09156
0.0931
0.1115
0.1451
0.1924
0.2558
0.324
0.3852
0.4317
0.4821
0.5192
0.5626
0.6001
0.6402
0.6786
0.7102
0.7344
0.7512
0.7582
0.757
0.7482
0.734
0.7188
0.7097
0.7064
0.7075
0.7091
0.7091
0.7055
0.7018
0.6974
0.6942
0.7107
0.7723
0.8383
0.8926
0.9154
0.9099
0.8726
0.8033
0.6956
0.5952
0.5293
0.497
0.4909
0.5026
0.5185
0.5357
0.5477
0.5507
0.5637
0.5885
0.6064
0.6262
0.6412
0.6503
0.6664
0.6909
0.7108
0.7267
0.7446
0.7646
0.7871
0.8115
0.8351
0.8552
0.8743
0.8928
0.9117
0.93
0.9474
0.9608
0.97
0.9764
0.9808
0.9835
0.9856
0.9872
0.9882
0.9892
0.9902
0.991
0.9917
0.9922
0.9928
0.9932
0.9936
0.9939
0.9942
0.9944
0.9947
0.9948
0.995
0.9951
0.9952
0.9952
0.9951
0.9948
0.9947
0.9951
0.996
0.9972
0.9982
0.9987
0.999
0.999
0.999
0.9987
0.9985
0.9985
0.9981
0.9971
0.994
0.01323
0.01923
0.02579
0.01729
0.007119
0.008261
0.01206
0.02211
0.02385
0.02042
0.01148
0.006751
0.003514
0.002116
0.0005902
0.0003254
0.0005627
0.001266
0.002796
0.005298
0.01305
0.02331
0.04222
0.06607
0.08129
0.06252
0.05148
0.04204
0.03414
0.03148
0.03459
0.04429
0.06108
0.07351
0.07432
0.07666
0.08826
0.09653
0.09758
0.09537
0.0957
0.1011
0.1149
0.1346
0.1501
0.1553
0.1509
0.1503
0.1488
0.1646
0.1979
0.2545
0.3209
0.3947
0.4388
0.4687
0.51
0.5522
0.6063
0.6541
0.6974
0.7252
0.7407
0.7455
0.7475
0.7433
0.7354
0.7182
0.6969
0.6723
0.657
0.6482
0.6464
0.6458
0.6413
0.6272
0.6099
0.5891
0.5678
0.5521
0.5966
0.6581
0.7274
0.7636
0.7492
0.6676
0.5457
0.3786
0.2758
0.244
0.2361
0.237
0.2478
0.2439
0.2334
0.2332
0.2301
0.2654
0.3403
0.4132
0.4571
0.4876
0.4868
0.4968
0.5255
0.5542
0.5827
0.6202
0.6583
0.6994
0.7373
0.7736
0.8045
0.8338
0.8602
0.8851
0.9082
0.9309
0.9487
0.9618
0.9709
0.9777
0.9824
0.9857
0.9879
0.9891
0.9898
0.9906
0.9913
0.992
0.9926
0.993
0.9934
0.9937
0.994
0.9943
0.9945
0.9946
0.9947
0.9948
0.9948
0.9947
0.9945
0.9946
0.9947
0.9952
0.9961
0.9971
0.9981
0.9986
0.9989
0.9989
0.9987
0.9985
0.9979
0.9972
0.9964
0.9953
0.993
0.9879
0.01491
0.01963
0.02607
0.01648
0.00768
0.008453
0.009741
0.01773
0.02159
0.02281
0.01435
0.01175
0.007447
0.004668
0.001826
0.001234
0.00207
0.004236
0.008427
0.01608
0.03106
0.04459
0.05887
0.06749
0.06214
0.05267
0.05059
0.04015
0.0323
0.02854
0.02692
0.03289
0.05016
0.06959
0.07913
0.08576
0.09408
0.1027
0.1061
0.1074
0.1087
0.1145
0.1275
0.1495
0.1755
0.1966
0.206
0.2159
0.2168
0.2309
0.2602
0.3022
0.3532
0.4138
0.4577
0.4892
0.5305
0.577
0.6339
0.6842
0.7257
0.7434
0.7453
0.7307
0.7167
0.6996
0.6871
0.6677
0.642
0.6117
0.5929
0.5796
0.5726
0.5669
0.552
0.5194
0.4787
0.4328
0.3772
0.3246
0.335
0.3715
0.4351
0.4706
0.4571
0.3504
0.2572
0.195
0.159
0.1439
0.1415
0.1384
0.1391
0.1305
0.1184
0.1164
0.1163
0.1392
0.1826
0.247
0.2866
0.3294
0.3141
0.3099
0.3239
0.3444
0.3783
0.438
0.5008
0.569
0.6322
0.6912
0.7417
0.7874
0.8255
0.8566
0.8835
0.9101
0.9322
0.9483
0.9609
0.9711
0.9791
0.9845
0.9879
0.9895
0.9903
0.9908
0.9914
0.9921
0.9926
0.993
0.9932
0.9935
0.9937
0.9939
0.994
0.9941
0.9942
0.9941
0.9939
0.9941
0.9944
0.9952
0.9958
0.9966
0.9973
0.9981
0.9985
0.9988
0.9987
0.9985
0.9979
0.9971
0.9955
0.9937
0.9913
0.9887
0.9847
0.9775
0.01773
0.02189
0.02812
0.01692
0.008842
0.007362
0.005804
0.01094
0.01796
0.02427
0.01973
0.02393
0.01482
0.01042
0.005739
0.004672
0.006529
0.01123
0.01608
0.02493
0.04102
0.05153
0.05979
0.05658
0.04761
0.0448
0.05199
0.0473
0.03814
0.03206
0.02597
0.02885
0.0412
0.065
0.08644
0.1031
0.1139
0.1224
0.1264
0.1299
0.1335
0.138
0.1474
0.1623
0.1769
0.1938
0.2116
0.2334
0.2545
0.2741
0.2994
0.3305
0.3795
0.4398
0.4947
0.5348
0.5715
0.6086
0.6537
0.6972
0.7305
0.7388
0.7241
0.6927
0.6618
0.6305
0.6118
0.5914
0.5703
0.5395
0.5213
0.5029
0.4882
0.4694
0.4356
0.3727
0.3028
0.247
0.202
0.1682
0.1653
0.1767
0.2128
0.2495
0.26
0.2207
0.1793
0.1445
0.1156
0.0959
0.0892
0.0858
0.08971
0.0929
0.08707
0.07916
0.07623
0.08923
0.1145
0.1475
0.1715
0.2068
0.2098
0.2205
0.2219
0.2199
0.2246
0.2527
0.2998
0.3953
0.4955
0.5907
0.671
0.74
0.7934
0.8328
0.8627
0.89
0.9141
0.933
0.9488
0.962
0.9726
0.9811
0.9862
0.9888
0.99
0.9905
0.991
0.9915
0.9919
0.9922
0.9924
0.9925
0.9926
0.9927
0.9928
0.9929
0.9935
0.9942
0.9948
0.9957
0.9963
0.997
0.9975
0.998
0.9983
0.9985
0.9986
0.9985
0.9979
0.997
0.9951
0.9927
0.9894
0.9855
0.9792
0.9742
0.9694
0.9606
0.01914
0.02288
0.03181
0.01866
0.01099
0.004926
0.002705
0.005163
0.01409
0.02924
0.0395
0.0485
0.02847
0.02102
0.014
0.01208
0.01214
0.01796
0.02077
0.02934
0.03864
0.04437
0.04867
0.04401
0.0441
0.04746
0.0589
0.05598
0.04817
0.03589
0.02712
0.02626
0.03388
0.05614
0.08565
0.1162
0.1347
0.1459
0.1523
0.1572
0.1627
0.1696
0.1785
0.1911
0.2006
0.2141
0.2318
0.2493
0.2695
0.2881
0.3152
0.3585
0.4198
0.4801
0.5378
0.5794
0.6115
0.6424
0.6737
0.699
0.7159
0.7113
0.6837
0.6397
0.5953
0.5565
0.5344
0.5177
0.501
0.4707
0.4502
0.4235
0.3986
0.3592
0.3044
0.2397
0.1859
0.1478
0.1213
0.1012
0.09861
0.1067
0.1311
0.1566
0.1562
0.1275
0.1023
0.08603
0.07114
0.06089
0.05391
0.05046
0.05583
0.06286
0.06546
0.06685
0.06893
0.07629
0.09468
0.1174
0.1377
0.1678
0.1821
0.201
0.1981
0.183
0.171
0.1811
0.2009
0.2602
0.3509
0.477
0.5945
0.6962
0.7704
0.8216
0.857
0.8817
0.9032
0.9212
0.9369
0.9512
0.9639
0.9751
0.983
0.987
0.9888
0.9895
0.9896
0.9899
0.9903
0.9913
0.9923
0.9934
0.9942
0.9948
0.9949
0.995
0.9957
0.9961
0.9962
0.9966
0.9968
0.9972
0.9976
0.9979
0.9979
0.998
0.9978
0.9973
0.9956
0.9924
0.9876
0.9814
0.975
0.9691
0.9609
0.9536
0.9467
0.9302
0.01667
0.02111
0.03102
0.01941
0.01544
0.005071
0.002536
0.003856
0.01258
0.02526
0.04638
0.05293
0.03485
0.02728
0.02277
0.02245
0.02111
0.02626
0.0305
0.03431
0.03754
0.03833
0.03726
0.03306
0.03458
0.03707
0.04836
0.0516
0.05085
0.04141
0.02931
0.02433
0.02899
0.04496
0.07397
0.1098
0.1339
0.1448
0.1597
0.1716
0.1826
0.193
0.2033
0.2138
0.2234
0.2381
0.261
0.283
0.3055
0.3296
0.3589
0.4012
0.4558
0.5058
0.5537
0.5926
0.623
0.6514
0.6756
0.6909
0.6957
0.6833
0.6485
0.6042
0.5616
0.5209
0.4915
0.4686
0.4437
0.4054
0.3805
0.3444
0.3156
0.2698
0.2168
0.1619
0.1233
0.09863
0.08596
0.07633
0.07401
0.07884
0.08432
0.08522
0.07254
0.05597
0.04474
0.04328
0.0395
0.03735
0.03166
0.02877
0.03342
0.04411
0.05381
0.06132
0.0672
0.0734
0.08809
0.1036
0.1153
0.1298
0.148
0.166
0.1623
0.1475
0.1352
0.145
0.1603
0.2133
0.2894
0.4165
0.5497
0.6688
0.7552
0.8156
0.8546
0.8793
0.8991
0.9154
0.9296
0.9419
0.9534
0.9671
0.9793
0.9871
0.9908
0.9923
0.9924
0.9924
0.9926
0.9936
0.9948
0.9959
0.9964
0.9964
0.9959
0.9953
0.9956
0.9959
0.9961
0.9962
0.9962
0.9961
0.9964
0.9964
0.9962
0.9957
0.9946
0.9923
0.9871
0.9782
0.9677
0.9571
0.9489
0.9411
0.9278
0.908
0.8862
0.8509
0.01502
0.02159
0.03581
0.02209