/*--------------------------------*- C++ -*----------------------------------*\
| =========                 |                                                 |
| \\      /  F ield         | OpenFOAM: The Open Source CFD Toolbox           |
|  \\    /   O peration     | Version:  5.x                                   |
|   \\  /    A nd           | Web:      www.OpenFOAM.org                      |
|    \\/     M anipulation  |                                                 |
\*---------------------------------------------------------------------------*/
FoamFile
{
    version     2.0;
    format      ascii;
    class       volScalarField;
    location    "185";
    object      gamma;
}
// * * * * * * * * * * * * * * * * * * * * * * * * * * * * * * * * * * * * * //

dimensions      [0 0 0 0 0 0 0];

internalField   nonuniform List<scalar> 
86400
(
6.281e-08
8.284e-08
1.468e-07
3.319e-07
9.043e-07
1.648e-06
2.031e-06
2.326e-06
2.717e-06
2.464e-06
3.58e-06
4.063e-06
4.106e-06
2.552e-06
1.732e-06
1.73e-06
4.718e-06
1.481e-05
3.052e-05
3.978e-05
4.376e-05
6.103e-05
0.000145
0.0002247
0.00028
0.0004763
0.0004958
0.0005765
0.0006097
0.0005346
0.0004315
0.0003698
0.0003771
0.0004263
0.0006119
0.001008
0.001465
0.001905
0.001762
0.00188
0.001688
0.001648
0.001363
0.0009142
0.0008356
0.001137
0.002008
0.003078
0.004377
0.003808
0.003674
0.003852
0.004229
0.00497
0.005788
0.007613
0.01014
0.01106
0.01022
0.008899
0.006747
0.006624
0.006544
0.007321
0.009912
0.01426
0.01518
0.01477
0.01038
0.008822
0.01084
0.01692
0.01999
0.01734
0.01483
0.01301
0.01109
0.01283
0.01604
0.01526
0.01498
0.01313
0.01247
0.01479
0.0217
0.02511
0.02712
0.02449
0.02496
0.02431
0.01841
0.01752
0.01769
0.02301
0.02553
0.02698
0.02108
0.01929
0.0186
0.01728
0.01523
0.01053
0.007098
0.004173
0.002592
0.002738
0.00449
0.007362
0.005755
0.003133
0.001361
0.0008804
0.0009611
0.001254
0.001284
0.001153
0.00102
0.0009148
0.0008854
0.0008787
0.0008656
0.0008337
0.0007168
0.000559
0.0004506
0.0003991
0.0003516
0.0003364
0.000308
0.0002615
0.0002026
0.0002104
0.0001682
0.0001036
6.749e-05
5.019e-05
5.838e-05
0.0001029
6.967e-05
2.173e-05
7.222e-06
3.411e-06
3.262e-06
2.214e-06
4.671e-07
5.67e-08
7.9e-09
7.605e-10
2.145e-10
2.212e-10
3.657e-10
2.108e-09
3.646e-08
3.353e-07
3.713e-06
2.247e-05
6.579e-05
0.0001792
0.07052
0.9993
8.609e-08
9.319e-08
1.457e-07
2.822e-07
7.984e-07
1.47e-06
1.73e-06
1.645e-06
1.275e-06
9.295e-07
1.338e-06
1.942e-06
3.223e-06
3.984e-06
3.191e-06
2.221e-06
4.861e-06
1.468e-05
3.805e-05
9.782e-05
0.0001316
0.0001605
0.0002476
0.0003532
0.0004455
0.0006067
0.0006992
0.000851
0.001054
0.000821
0.0006758
0.0006001
0.0006701
0.0008184
0.001276
0.00214
0.003523
0.005229
0.005794
0.006165
0.004943
0.003986
0.003244
0.00226
0.001678
0.001977
0.002792
0.004071
0.006392
0.00712
0.00766
0.008992
0.01117
0.0134
0.01105
0.008529
0.006661
0.005028
0.003913
0.00392
0.003384
0.003267
0.002956
0.002891
0.003299
0.005468
0.006793
0.008071
0.006992
0.007442
0.01023
0.01509
0.01189
0.007796
0.004763
0.00472
0.006911
0.01276
0.01866
0.01838
0.01635
0.01399
0.01563
0.01976
0.03152
0.03929
0.04655
0.04433
0.04971
0.05612
0.05278
0.05386
0.05096
0.0448
0.03662
0.02892
0.01988
0.01635
0.01475
0.01288
0.01265
0.01279
0.0142
0.01266
0.008215
0.006494
0.007655
0.009848
0.008725
0.005519
0.002243
0.001285
0.0009212
0.0007962
0.0006617
0.0006728
0.0009502
0.0017
0.002777
0.003202
0.003248
0.003115
0.002623
0.002005
0.001628
0.001474
0.0013
0.00125
0.001099
0.0008969
0.0006914
0.000551
0.0003383
0.0002153
0.0001647
0.0001234
0.0001297
0.000153
9.093e-05
2.519e-05
1.039e-05
3.788e-06
1.961e-06
1.004e-06
2.306e-07
4.751e-08
1.276e-08
4.082e-09
5.554e-09
1.201e-08
3.647e-08
1.647e-07
1.397e-06
9.397e-06
0.0001278
0.001873
0.03134
0.6792
0.9764
0.9999
1.481e-07
1.428e-07
1.969e-07
3.113e-07
7.922e-07
1.314e-06
1.375e-06
1.13e-06
6.795e-07
5.76e-07
9.012e-07
2.041e-06
3.991e-06
7.167e-06
5.629e-06
4.848e-06
1.251e-05
4.156e-05
7.921e-05
0.0001867
0.0001737
0.0001858
0.0002882
0.0004583
0.0004923
0.0007703
0.001071
0.00158
0.002343
0.002009
0.001555
0.001687
0.001856
0.001887
0.002031
0.002309
0.003077
0.004254
0.003647
0.003345
0.00237
0.00206
0.001733
0.00159
0.001355
0.001897
0.003447
0.005823
0.009824
0.01247
0.01034
0.007744
0.006066
0.005178
0.003578
0.003292
0.00272
0.001973
0.001454
0.001497
0.001506
0.001674
0.001847
0.002363
0.002402
0.003042
0.003557
0.004349
0.004048
0.005141
0.006768
0.007163
0.004287
0.003209
0.002816
0.004903
0.01139
0.02414
0.03372
0.03618
0.03172
0.02475
0.02694
0.03327
0.05724
0.07047
0.08485
0.08627
0.07896
0.06495
0.04483
0.03064
0.01951
0.01778
0.01623
0.01519
0.01397
0.01399
0.01215
0.01089
0.01208
0.01533
0.0216
0.02282
0.01809
0.01499
0.01318
0.01479
0.01309
0.008645
0.004746
0.003641
0.002219
0.001633
0.001304
0.001464
0.001915
0.002869
0.003526
0.002891
0.002448
0.00251
0.002192
0.001734
0.001386
0.001181
0.0009657
0.0008636
0.0007061
0.0006217
0.000557
0.0004372
0.0002375
0.0001145
7.659e-05
6.188e-05
9.12e-05
0.0001366
0.0001097
4.112e-05
1.416e-05
4.763e-06
2.863e-06
1.736e-06
6.706e-07
2.028e-07
7.826e-08
4.72e-08
1.253e-07
4.348e-07
1.722e-06
6.168e-06
4.614e-05
0.0003826
0.006302
0.1841
0.9067
0.9962
0.9999
1
2.691e-07
2.514e-07
2.744e-07
3.316e-07
6.703e-07
9.071e-07
7.519e-07
5.266e-07
3.331e-07
4.109e-07
5.944e-07
7.494e-07
8.023e-07
2.254e-06
2.856e-06
4.874e-06
1.347e-05
2.265e-05
1.95e-05
2.304e-05
1.691e-05
1.226e-05
2.797e-05
5.924e-05
6.594e-05
0.00013
0.000268
0.0004995
0.001017
0.001245
0.000995
0.001461
0.002044
0.002414
0.002515
0.002564
0.002824
0.00379
0.0027
0.002405
0.001947
0.00195
0.002393
0.002934
0.001908
0.001801
0.001738
0.00205
0.002912
0.00425
0.003093
0.002
0.001698
0.001582
0.00113
0.001082
0.0008076
0.0005804
0.0005156
0.000706
0.0008737
0.001218
0.001612
0.001866
0.001727
0.002087
0.002185
0.00245
0.002431
0.004023
0.006844
0.007112
0.004855
0.004256
0.003188
0.006159
0.01422
0.02487
0.02527
0.02795
0.02361
0.0197
0.02051
0.02178
0.02685
0.02988
0.03568
0.03897
0.04294
0.04923
0.0529
0.04849
0.03171
0.02728
0.02203
0.01923
0.0187
0.02029
0.01759
0.01757
0.01758
0.01816
0.02746
0.03025
0.02179
0.01658
0.01039
0.009806
0.009039
0.008018
0.004474
0.00396
0.002178
0.001435
0.001069
0.001478
0.002614
0.00482
0.00613
0.004781
0.003666
0.003864
0.003514
0.002916
0.002378
0.002014
0.001612
0.001415
0.001221
0.001158
0.00115
0.0009374
0.0005009
0.000242
0.0001454
7.084e-05
5.647e-05
3.906e-05
2.134e-05
1.095e-05
4.412e-06
1.657e-06
1.315e-06
1.34e-06
1.06e-06
7.105e-07
6.636e-07
8.958e-07
5.826e-06
3.667e-05
0.0002571
0.001202
0.008173
0.082
0.7601
0.9815
0.9995
1
1
1
6.15e-07
6.725e-07
6.464e-07
6.811e-07
8.902e-07
7.66e-07
3.747e-07
2.855e-07
2.435e-07
4.132e-07
4.833e-07
2.874e-07
1.332e-07
4.022e-07
7.737e-07
4.014e-06
2.417e-05
1.637e-05
3.564e-06
2.311e-06
1.957e-06
1.609e-06
6.896e-06
1.57e-05
2.043e-05
6.462e-05
0.0002537
0.000983
0.002619
0.002664
0.001013
0.0008525
0.0007943
0.0008399
0.0009135
0.0008949
0.0007427
0.001151
0.001239
0.001844
0.001511
0.001153
0.0005279
0.0003071
0.0001282
0.0001108
9.202e-05
0.0001258
0.0002707
0.0007701
0.0009525
0.0009899
0.0008624
0.0009337
0.0007899
0.0008549
0.0007271
0.0005703
0.0007225
0.001337
0.002219
0.003637
0.005721
0.006646
0.004362
0.002925
0.002267
0.001917
0.001667
0.002535
0.00432
0.003881
0.003779
0.004736
0.005303
0.008224
0.01531
0.01568
0.01246
0.01521
0.01359
0.01152
0.01256
0.01512
0.02108
0.02927
0.03804
0.03914
0.04016
0.04336
0.04146
0.04544
0.03229
0.02668
0.019
0.01772
0.01202
0.01221
0.01189
0.0104
0.006673
0.003405
0.002794
0.003224
0.00393
0.007454
0.008538
0.007304
0.006313
0.009109
0.006456
0.006898
0.004355
0.003176
0.002206
0.002117
0.001986
0.002136
0.001658
0.001353
0.001035
0.001123
0.001058
0.0009594
0.0008528
0.0007596
0.0006248
0.0005695
0.0005338
0.0005683
0.0006147
0.0004462
0.000187
6.47e-05
1.448e-05
4.101e-06
2.74e-06
3.301e-06
2.529e-06
2.235e-06
1.278e-06
8.903e-07
1.219e-06
2.611e-06
5.317e-06
9.407e-06
1.957e-05
5.119e-05
0.0004085
0.002491
0.01799
0.1043
0.6208
0.9498
0.9969
0.9999
1
1
1
1
9.652e-07
1.424e-06
1.356e-06
1.425e-06
9.914e-07
5.628e-07
2.127e-07
1.925e-07
2.719e-07
7.691e-07
9.519e-07
2.663e-07
5.98e-08
1.164e-07
6.714e-07
5.28e-06
2.584e-05
1.014e-05
1.768e-06
1.371e-06
2.388e-06
3.035e-06
1.713e-05
1.078e-05
5.446e-06
7.351e-06
2.384e-05
0.0001115
0.0006679
0.0006689
0.0002024
0.0001316
0.0001165
0.0001377
0.0002713
0.00034
0.0002022
0.0002272
0.0002545
0.0002402
0.0001079
5.111e-05
1.113e-05
3.697e-06
1.406e-06
5.19e-07
9.782e-08
9.601e-08
2.342e-07
1.201e-06
3.043e-06
8.935e-06
2.117e-05
4.112e-05
5.55e-05
5.307e-05
3.776e-05
4.44e-05
0.0001796
0.0008343
0.002731
0.004273
0.003513
0.002781
0.001596
0.001048
0.001768
0.002601
0.00269
0.004386
0.007878
0.006051
0.005435
0.00542
0.003843
0.003336
0.002261
0.001658
0.001488
0.002842
0.005262
0.01255
0.02045
0.02847
0.0365
0.04367
0.04725
0.04851
0.06026
0.08433
0.07364
0.03046
0.00631
0.001463
0.0003798
0.0002286
0.0001162
0.0001278
0.0001405
0.0002501
0.0003486
0.0003612
0.0003034
0.0002965
0.0003131
0.0007144
0.0009923
0.001688
0.002475
0.002566
0.00149
0.001513
0.001204
0.001189
0.0009671
0.0008771
0.0007467
0.0007272
0.000613
0.0005521
0.0004213
0.0004181
0.0003858
0.0003693
0.0003434
0.0002899
0.0002251
0.0001671
0.0001141
6.994e-05
5.83e-05
4.937e-05
3.701e-05
2.638e-05
9.335e-06
2.641e-06
1.24e-06
1.235e-06
1.219e-06
1.879e-06
1.642e-06
2.136e-06
4.651e-06
1.873e-05
7.842e-05
0.0002835
0.001044
0.004378
0.02692
0.168
0.7758
0.9599
0.9955
0.9998
1
1
1
1
1
1
1.124e-06
2.227e-06
1.893e-06
1.635e-06
8.711e-07
4.542e-07
1.7e-07
2.814e-07
9.812e-07
3.905e-06
4.038e-06
7.92e-07
6.356e-08
6.963e-08
2e-07
2.575e-06
2.349e-05
2.591e-05
8.286e-06
9.07e-06
2.199e-05
2.665e-05
9.487e-05
2.039e-05
5.916e-06
4.035e-06
9.337e-06
3.356e-05
0.0002882
0.0003163
9.838e-05
3.985e-05
3.859e-05
6.369e-05
0.000149
0.0001646
5.98e-05
4.627e-05
7.636e-05
7.816e-05
2.242e-05
4.632e-06
3.358e-07
4.776e-08
1.554e-08
2.049e-09
1.638e-10
1.125e-10
2.79e-10
2.541e-09
1.208e-08
5.362e-08
1.977e-07
6.319e-07
1.216e-06
1.343e-06
1.285e-06
2.765e-06
3.241e-05
0.000277
0.00178
0.003887
0.003284
0.0034
0.003458
0.002467
0.005303
0.008568
0.008121
0.007568
0.01133
0.004214
0.001791
0.001137
0.0008687
0.001051
0.0006355
0.0003634
0.0001579
0.0001801
0.0004212
0.002717
0.00787
0.008827
0.008712
0.007583
0.008524
0.0154
0.05702
0.1571
0.105
0.03292
0.005014
0.000835
0.0001597
8.65e-05
2.593e-05
1.946e-05
1.309e-05
3.578e-05
8.357e-05
0.0001192
0.0001199
5.812e-05
2.465e-05
2.08e-05
2.085e-05
2.772e-05
0.0001068
0.0002063
0.0003281
0.00061
0.0007147
0.0009506
0.0009989
0.0009111
0.0005868
0.0004508
0.0003254
0.0003515
0.0003315
0.0002926
0.0002023
0.0001105
6.406e-05
4.499e-05
4.008e-05
3.731e-05
3.126e-05
1.612e-05
1.216e-05
1.305e-05
1.621e-05
1.892e-05
1.099e-05
4.579e-06
3.86e-06
8.392e-06
1.643e-05
5.374e-05
0.0001074
0.0002248
0.0006374
0.002838
0.01118
0.04549
0.2024
0.6883
0.9295
0.9875
0.9988
0.9999
1
1
1
1
1
1
1
1
1.921e-06
3.603e-06
2.213e-06
1.634e-06
9.55e-07
5.61e-07
3.299e-07
1.176e-06
3.785e-06
7.176e-06
7.124e-06
1.119e-06
8.286e-08
7.153e-08
1.676e-07
1.569e-06
1.636e-05
5.07e-05
7.748e-05
0.0002869
0.0005798
0.0005415
0.0009589
0.0002086
4.117e-05
8.076e-06
1.166e-05
2.433e-05
0.0001602
0.0002365
0.0001163
9.655e-05
9.613e-05
0.0001584
0.0002784
0.0002516
8.532e-05
8.324e-05
0.000218
0.0001035
1.591e-05
1.2e-06
7.593e-08
6.489e-09
2.54e-09
1.628e-10
7.963e-12
4.341e-12
1.239e-11
1.347e-10
9.532e-10
7.797e-09
6.626e-08
4.114e-07
8.126e-07
3.226e-07
1.244e-07
1.585e-07
1.772e-06
2.385e-05
0.0003848
0.001857
0.002437
0.003418
0.004574
0.00386
0.007401
0.007543
0.003503
0.0009646
0.0006069
0.0002116
7.566e-05
4.728e-05
6.453e-05
0.0001001
8.627e-05
0.0001854
0.0001508
0.0003357
0.001151
0.01395
0.0547
0.07974
0.05832
0.0735
0.4568
0.8709
0.9827
0.9946
0.9906
0.9633
0.8051
0.1795
0.03315
0.01149
0.001494
0.0004817
0.000141
0.000132
0.000138
0.0002995
0.0001003
9.916e-06
1.049e-06
4.593e-07
9.674e-07
2.691e-06
1.359e-05
1.205e-05
1.568e-05
2.313e-05
3.84e-05
7.084e-05
7.632e-05
6.66e-05
6.877e-05
7.036e-05
6.863e-05
0.0001284
0.000221
0.0003054
0.0002696
0.0001376
6.305e-05
4.177e-05
4.25e-05
4.602e-05
4.529e-05
2.246e-05
1.628e-05
1.828e-05
4.744e-05
0.0001101
0.0001606
0.0001233
0.0001282
0.000229
0.0006029
0.002794
0.009757
0.03327
0.116
0.4459
0.8166
0.961
0.9922
0.9989
0.9999
1
1
1
1
1
1
1
1
1
1
1
3.161e-06
4.176e-06
2.009e-06
1.32e-06
8.195e-07
6.613e-07
9.473e-07
2.943e-06
5.173e-06
6.129e-06
3.219e-06
7.228e-07
1.886e-07
2.072e-07
5.149e-07
2.541e-06
8.659e-06
3.047e-05
7.879e-05
0.0001269
0.0002756
0.0005215
0.001767
0.001288
0.0005019
0.0001438
6.497e-05
8.473e-05
0.0002533
0.000418
0.0003029
0.000458
0.0003925
0.0005214
0.0004269
0.0001948
3.967e-05
6.027e-05
0.000151
3.031e-05
2.927e-06
1.681e-07
1.572e-08
2.269e-09
2.253e-09
3.205e-10
4.31e-11
2.807e-11
7.286e-11
1.621e-10
5.516e-10
2.417e-09
1.432e-08
7.732e-08
1.768e-07
8.661e-08
2.727e-08
2.681e-08
1.835e-07
3.166e-06
0.0001169
0.001294
0.003863
0.006417
0.005581
0.001894
0.001213
0.000595
0.000181
4.013e-05
2.588e-05
1.422e-05
7.788e-06
7.48e-06
4.342e-05
0.0003831
0.001457
0.0115
0.03041
0.104
0.6175
0.9354
0.9828
0.9915
0.9935
0.997
0.9993
0.9999
1
1
0.9999
0.9995
0.998
0.994
0.9928
0.9882
0.9532
0.7653
0.1348
0.03162
0.01609
0.01622
0.002828
0.0001187
9.705e-06
1.122e-06
7.213e-07
9.462e-07
2.061e-06
5.457e-07
4.001e-07
2.686e-07
3.43e-07
9.001e-07
3.595e-06
1.442e-05
3.29e-05
3.162e-05
2.226e-05
2.229e-05
3.542e-05
7.528e-05
9.923e-05
6.486e-05
3.129e-05
1.919e-05
2.422e-05
3.956e-05
5.985e-05
5.073e-05
6.147e-05
0.0001162
0.0003582
0.001256
0.003985
0.008014
0.01848
0.05745
0.2491
0.7414
0.9257
0.9801
0.9938
0.9979
0.9996
0.9999
1
1
1
1
1
1
1
1
1
1
1
1
1
1
2.48e-06
2.478e-06
1.404e-06
1.04e-06
9.566e-07
1.308e-06
1.752e-06
2.942e-06
3.086e-06
2.61e-06
9.258e-07
4.145e-07
3.379e-07
5.872e-07
2.056e-06
5.562e-06
2.102e-05
2.716e-05
3.981e-05
2.204e-05
3.494e-05
0.0001028
0.0006143
0.001755
0.00167
0.0006002
0.0001448
0.0001639
0.0002148
0.0005281
0.0009385
0.002557
0.00242
0.002567
0.0006967
0.0001978
7.045e-05
0.0001291
0.0001188
9.269e-06
5.921e-07
3.161e-08
6.33e-09
3.267e-09
4.895e-09
1.35e-09
7.367e-10
8.865e-10
9.188e-10
5.647e-10
5.2e-10
6.894e-10
4.731e-09
4.559e-08
1.428e-07
1.09e-07
5.677e-08
4.655e-08
1.692e-07
2.704e-06
7.041e-05
0.001021
0.002391
0.00245
0.0009703
0.0001725
4.446e-05
2.495e-05
1.535e-05
8.254e-06
1.471e-05
2.758e-05
8.871e-05
0.0003998
0.003769
0.03179
0.2003
0.7828
0.9483
0.9883
0.9984
0.9998
1
1
1
1
1
1
1
1
1
1
1
1
1
1
1
0.9998
0.9985
0.9921
0.9742
0.9431
0.7674
0.06927
0.002327
0.0002009
4.408e-05
2.277e-05
1.393e-05
8.282e-07
8.826e-08
1.653e-08
9.944e-09
9.529e-09
7.429e-08
8.985e-07
3.996e-06
7.842e-06
9.122e-06
6.954e-06
1.408e-05
7.399e-05
0.0001771
0.0002575
0.0002817
0.0003067
0.0005923
0.001431
0.003443
0.004808
0.00784
0.0158
0.04408
0.213
0.7197
0.9106
0.9732
0.991
0.9969
0.9993
0.9999
1
1
1
1
1
1
1
1
1
1
1
1
1
1
1
1
1
1
1
2.067e-06
1.59e-06
1.216e-06
1.509e-06
2.419e-06
1.737e-06
7.644e-07
5.153e-07
3.186e-07
3.082e-07
2.656e-07
2.677e-07
7.487e-07
3.179e-06
8.086e-06
2.243e-05
4.206e-05
1.872e-05
1.479e-05
4.409e-06
6.503e-06
1.396e-05
0.0001594
0.00111
0.002562
0.001733
0.001252
0.0009909
0.0006305
0.001031
0.001179
0.001642
0.0009904
0.0007055
0.0002058
6.843e-05
4.984e-05
0.0001875
0.0001108
1.03e-05
3.983e-07
3.033e-08
3.763e-09
1.861e-09
1.617e-09
1.999e-09
1.399e-08
5.419e-08
5.854e-08
1.018e-08
1.07e-09
3.455e-10
2.412e-09
6.262e-08
6.738e-07
2.417e-06
2.433e-06
1.479e-06
2.626e-06
2.569e-05
0.0002037
0.0007386
0.0006817
0.0003165
7.159e-05
1.794e-05
7.604e-06
1.227e-05
3.104e-05
7.717e-05
0.0003101
0.00336
0.02321
0.2202
0.8626
0.9778
0.9967
0.9994
0.9999
1
1
1
1
1
1
1
1
1
1
1
1
1
1
1
1
1
1
1
1
1
0.9999
0.9999
0.9994
0.9965
0.9797
0.8556
0.184
0.01837
0.002681
0.0001313
7.077e-06
4.802e-07
1.308e-07
8.572e-08
7.303e-07
8.988e-06
3.51e-05
5.544e-05
6.937e-05
4.31e-05
8.408e-05
0.0004915
0.001816
0.004773
0.009422
0.01266
0.01871
0.04434
0.1971
0.6956
0.928
0.98
0.9931
0.9976
0.9994
0.9999
1
1
1
1
1
1
1
1
1
1
1
1
1
1
1
1
1
1
1
1
1
1
1
1
1.858e-06
1.385e-06
1.381e-06
2.276e-06
4.115e-06
2.838e-06
5.948e-07
2.154e-07
7.307e-08
1.521e-07
2.139e-07
1.112e-06
5.307e-06
1.29e-05
3.001e-05
9.408e-05
8.757e-05
4.977e-05
2.648e-05
6.718e-06
9.629e-06
2.653e-05
0.000252
0.00109
0.002503
0.002225
0.003203
0.002675
0.002376
0.002589
0.002528
0.001947
0.0008058
0.0002988
0.0001635
8.457e-05
0.000102
0.0004571
0.0001317
9.203e-06
2.764e-07
1.098e-08
8.277e-10
4.545e-10
2.224e-10
6.91e-10
1.051e-08
1.554e-07
1.856e-07
2.81e-08
1.317e-09
4.32e-10
4.479e-09
2.535e-07
5.741e-06
2.44e-05
3.549e-05
3.043e-05
3.195e-05
7.514e-05
6.558e-05
4.087e-05
1.838e-05
1.006e-05
4.729e-06
8.537e-06
2.777e-05
0.0002289
0.002613
0.02254
0.1956
0.8561
0.9781
0.9966
0.9996
0.9999
1
1
1
1
1
1
1
1
1
1
1
1
1
1
1
1
1
1
1
1
1
1
1
1
1
1
1
1
1
0.9998
0.9986
0.9953
0.976
0.8428
0.157
0.01183
0.003713
0.002695
0.007682
0.02409
0.02662
0.02123
0.02011
0.01132
0.01286
0.0324
0.1016
0.5827
0.8989
0.9735
0.9914
0.9958
0.9982
0.9994
0.9999
1
1
1
1
1
1
1
1
1
1
1
1
1
1
1
1
1
1
1
1
1
1
1
1
1
1
1
1
1
8.18e-07
7.702e-07
8.944e-07
1.445e-06
3.785e-06
3.262e-06
5.908e-07
1.989e-07
1.625e-07
3.902e-07
1.153e-06
9.202e-06
2.206e-05
4.679e-05
7.767e-05
0.0001197
0.0001049
8.059e-05
4.135e-05
1.394e-05
1.9e-05
4.874e-05
0.0002651
0.0006658
0.00163
0.001949
0.005208
0.005619
0.007164
0.005896
0.006544
0.003833
0.001942
0.0009804
0.0005078
0.0002992
0.0003912
0.001168
0.0001998
1.827e-05
7.657e-07
3.363e-08
1.372e-09
8.741e-10
3.703e-10
1.88e-09
5.287e-08
1.579e-06
1.493e-06
2.852e-07
6.869e-09
1.336e-09
7.132e-09
3.495e-07
5.551e-06
2.803e-05
5.201e-05
5.05e-05
4.758e-05
4.395e-05
1.717e-05
6.309e-06
2.603e-06
4.545e-06
1.827e-05
0.0002041
0.003713
0.1074
0.7901
0.9663
0.9943
0.9993
0.9999
1
1
1
1
1
1
1
1
1
1
1
1
1
1
1
1
1
1
1
1
1
1
1
1
1
1
1
1
1
1
1
1
1
1
1
0.9999
0.9997
0.999
0.998
0.9974
0.9966
0.9972
0.9977
0.9964
0.9959
0.9964
0.9956
0.9961
0.9969
0.9979
0.9993
0.9999
1
1
1
1
1
1
1
1
1
1
1
1
1
1
1
1
1
1
1
1
1
1
1
1
1
1
1
1
1
1
1
1
1
1
1
9.468e-07
8.136e-07
1.06e-06
1.389e-06
3.689e-06
5.354e-06
1.602e-06
1.05e-06
7.937e-07
2.012e-06
5.939e-06
3.408e-05
4.527e-05
6.55e-05
6.15e-05
7.216e-05
7.94e-05
7.633e-05
5.853e-05
5.318e-05
9.725e-05
0.0002032
0.0004327
0.0005266
0.0006529
0.0006657
0.002167
0.002636
0.004818
0.007167
0.01008
0.007951
0.006565
0.003105
0.001174
0.0004745
0.0003633
0.0007822
0.0003183
9.91e-05
9.726e-06
7.674e-07
4.373e-08
2.888e-08
1.518e-08
7.937e-08
1.111e-06
2.711e-05
3.621e-05
1.298e-05
5.07e-07
1.398e-07
3.658e-07
3.558e-06
2.163e-05
3.335e-05
2.656e-05
1.991e-05
1.326e-05
1.027e-05
7.687e-06
6.628e-06
1.793e-05
0.0001988
0.004277
0.1402
0.8833
0.9881
0.9984
0.9998
1
1
1
1
1
1
1
1
1
1
1
1
1
1
1
1
1
1
1
1
1
1
1
1
1
1
1
1
1
1
1
1
1
1
1
1
1
1
1
1
1
1
1
1
1
1
1
1
1
1
1
1
1
1
1
1
1
1
1
1
1
1
1
1
1
1
1
1
1
1
1
1
1
1
1
1
1
1
1
1
1
1
1
1
1
1
1
1
1
1
2.185e-06
1.781e-06
2.894e-06
1.527e-06
2.66e-06
2.127e-06
1.349e-06
2.97e-06
7.026e-06
6.373e-06
9.066e-06
1.856e-05
2.943e-05
4.16e-05
4.922e-05
2.456e-05
5.76e-06
1.606e-06
7.104e-07
5.979e-07
2.079e-06
1.03e-05
5.504e-05
0.0001448
0.0002685
0.0003126
0.0007219
0.0007505
0.001065
0.001271
0.001948
0.003182
0.005612
0.003875
0.001333
0.0004044
0.0002249
0.0005286
0.000522
0.000518
0.0001831
3.56e-05
4.59e-06
3.561e-06
2.008e-06
1.081e-05
6.05e-05
0.0006141
0.0009502
0.0005343
6.244e-05
1.461e-05
1.218e-05
1.851e-05
3.412e-05
1.711e-05
9.543e-06
5.924e-06
7.149e-06
1.449e-05
6.493e-05
0.0003148
0.004329
0.1566
0.8918
0.9878
0.999
0.9999
1
1
1
1
1
1
1
1
1
1
1
1
1
1
1
1
1
1
1
1
1
1
1
1
1
1
1
1
1
1
1
1
1
1
1
1
1
1
1
1
1
1
1
1
1
1
1
1
1
1
1
1
1
1
1
1
1
1
1
1
1
1
1
1
1
1
1
1
1
1
1
1
1
1
1
1
1
1
1
1
1
1
1
1
1
1
1
1
1
1
1
1
6.469e-06
5.933e-06
1.237e-05
2.915e-06
2.223e-06
1.573e-06
2.307e-06
1.154e-05
3.539e-05
1.73e-05
1.048e-05
7.244e-06
5.824e-06
2.482e-05
1.707e-05
1.978e-06
2.367e-07
3.151e-08
1.187e-08
1.02e-08
7.337e-08
1.306e-06
1.716e-05
9.855e-05
0.0003623
0.0003741
0.0006564
0.0007946
0.0007557
0.0007835
0.001358
0.003283
0.008033
0.008309
0.002882
0.0006937
0.0003788
0.0006542
0.001008
0.001857
0.002012
0.000951
0.0003304
0.0003507
0.0002212
0.0002402
0.0003643
0.001102
0.002566
0.004253
0.002427
0.0007345
0.0003727
0.0001118
7.116e-05
1.923e-05
1.282e-05
1.363e-05
7.419e-05
0.0003402
0.008566
0.1654
0.8708
0.9868
0.9991
0.9999
1
1
1
1
1
1
1
1
1
1
1
1
1
1
1
1
1
1
1
1
1
1
1
1
1
1
1
1
1
1
1
1
1
1
1
1
1
1
1
1
1
1
1
1
1
1
1
1
1
1
1
1
1
1
1
1
1
1
1
1
1
1
1
1
1
1
1
1
1
1
1
1
1
1
1
1
1
1
1
1
1
1
1
1
1
1
1
1
1
1
1
1
1
1
1.341e-05
1.448e-05
5.577e-05
1.177e-05
2.512e-06
1.16e-06
3.161e-06
1.723e-05
5.662e-05
3.024e-05
9.568e-06
5.329e-06
7.179e-06
4.485e-05
6.973e-06
2.485e-07
2.445e-08
3.731e-09
2.609e-09
2.504e-09
2.57e-08
5.568e-07
1.021e-05
9.487e-05
0.0007949
0.000611
0.00118
0.001329
0.0007534
0.0005325
0.0006482
0.001799
0.005283
0.006809
0.003102
0.001224
0.00115
0.001547
0.00287
0.004341
0.005676
0.004801
0.004128
0.003093
0.001684
0.0007998
0.0005967
0.000988
0.002444
0.004362
0.002676
0.0009167
0.0004336
0.0001359
0.0001136
6.474e-05
0.0001124
0.0004661
0.006693
0.1359
0.8751
0.9853
0.9991
0.9999
1
1
1
1
1
1
1
1
1
1
1
1
1
1
1
1
1
1
1
1
1
1
1
1
1
1
1
1
1
1
1
1
1
1
1
1
1
1
1
1
1
1
1
1
1
1
1
1
1
1
1
1
1
1
1
1
1
1
1
1
1
1
1
1
1
1
1
1
1
1
1
1
1
1
1
1
1
1
1
1
1
1
1
1
1
1
1
1
1
1
1
1
1
1
1
1
2.069e-05
2.81e-05
8.244e-05
2.096e-05
3.241e-06
3.699e-06
9.121e-06
5.756e-05
8.689e-05
3.789e-05
8.088e-06
3.591e-06
5.312e-06
2.331e-05
1.016e-06
5.436e-08
1.26e-08
6.252e-09
1.007e-08
1.119e-08
7.615e-08
6.969e-07
1.358e-05
0.0001039
0.0009672
0.0007854
0.001404
0.001873
0.001416
0.001232
0.001206
0.002267
0.005647
0.006642
0.003471
0.00212
0.002819
0.003439
0.004441
0.004572
0.006322
0.007694
0.01475
0.01357
0.007368
0.002155
0.0007205
0.000469
0.0007733
0.001489
0.00115
0.0007143
0.0005733
0.0003374
0.0004181
0.001232
0.008938
0.09291
0.8386
0.9845
0.9987
0.9999
1
1
1
1
1
1
1
1
1
1
1
1
1
1
1
1
1
1
1
1
1
1
1
1
1
1
1
1
1
1
1
1
1
1
1
1
1
1
1
1
1
1
1
1
1
1
1
1
1
1
1
1
1
1
1
1
1
1
1
1
1
1
1
1
1
1
1
1
1
1
1
1
1
1
1
1
1
1
1
1
1
1
1
1
1
1
1
1
1
1
1
1
1
1
1
1
1
1
1.575e-05
2.72e-05
5.432e-05
1.631e-05
2.215e-06
5.702e-06
2.598e-05
0.000241
0.0002416
8.389e-05
1.622e-05
4.96e-06
3.617e-06
8.184e-06
3.559e-07
3.78e-08
5.196e-08
1.205e-07
3.24e-07
3.632e-07
1.237e-06
4.67e-06
6.756e-05
0.0004084
0.002825
0.002117
0.003115
0.003131
0.00222
0.001464
0.001543
0.002755
0.006897
0.009077
0.005638
0.004225
0.006612
0.008642
0.007822
0.004114
0.003
0.002596
0.005395
0.006935
0.005043
0.002018
0.001024
0.0002967
0.0001787
0.000228
0.000189
0.000268
0.0007538
0.001464
0.00451
0.04458
0.6968
0.9666
0.9981
0.9999
1
1
1
1
1
1
1
1
1
1
1
1
1
1
1
1
1
1
1
1
1
1
1
1
1
1
1
1
1
1
1
1
1
1
1
1
1
1
1
1
1
1
1
1
1
1
1
1
1
1
1
1
1
1
1
1
1
1
1
1
1
1
1
1
1
1
1
1
1
1
1
1
1
1
1
1
1
1
1
1
1
1
1
1
1
1
1
1
1
1
1
1
1
1
1
1
1
1
1
1
2.285e-05
2.821e-05
4.033e-05
1.693e-05
3.014e-06
1.887e-05
7.715e-05
0.0004724
0.0004119
0.0002008
4.883e-05
1.889e-05
9.552e-06
1.043e-05
8.339e-07
2.522e-07
1.149e-06
4.586e-06
1.25e-05
1.262e-05
2.839e-05
5.348e-05
0.0002317
0.0008942
0.002757
0.002538
0.002823
0.003121
0.002631
0.001896
0.001992
0.003813
0.01053
0.0163
0.01097
0.00706
0.007214
0.006026
0.003871
0.001629
0.0006775
0.0005232
0.0008841
0.002005
0.003272
0.002979
0.002158
0.0004542
0.0001879
0.0001148
0.0001514
0.000303
0.002702
0.0113
0.251
0.921
0.9943
0.9997
1
1
1
1
1
1
1
1
1
1
1
1
1
1
1
1
1
1
1
1
1
1
1
1
1
1
1
1
1
1
1
1
1
1
1
1
1
1
1
1
1
1
1
1
1
1
1
1
1
1
1
1
1
1
1
1
1
1
1
1
1
1
1
1
1
1
1
1
1
1
1
1
1
1
1
1
1
1
1
1
1
1
1
1
1
1
1
1
1
1
1
1
1
1
1
1
1
1
1
1
1
1
4.982e-05
5.108e-05
6.864e-05
2.075e-05
5.546e-06
2.82e-05
6.6e-05
0.0003599
0.0003882
0.0002956
7.789e-05
6.564e-05
5.02e-05
4.529e-05
8.338e-06
4.212e-06
1.339e-05
3.178e-05
6.343e-05
0.0001285
0.0002427
0.0003083
0.0005768
0.000809
0.0008537
0.001246
0.002433
0.002007
0.001543
0.0009812
0.0006836
0.001141
0.004522
0.01109
0.01099
0.007298
0.005548
0.004865
0.00336
0.001762
0.000583
0.0002944
0.0003039
0.0005382
0.001015
0.001628
0.002129
0.00063
0.0005032
0.0003115
0.0007024
0.00206
0.06008
0.7276
0.9814
0.9992
1
1
1
1
1
1
1
1
1
1
1
1
1
1
1
1
1
1
1
1
1
1
1
1
1
1
1
1
1
1
1
1
1
1
1
1
1
1
1
1
1
1
1
1
1
1
1
1
1
1
1
1
1
1
1
1
1
1
1
1
1
1
1
1
1
1
1
1
1
1
1
1
1
1
1
1
1
1
1
1
1
1
1
1
1
1
1
1
1
1
1
1
1
1
1
1
1
1
1
1
1
1
1
1
0.0001129
9.768e-05
0.0001092
2.49e-05
1.087e-05
2.824e-05
2.744e-05
0.0001456
0.0002754
0.0003252
0.0001233
0.0002349
0.0001433
0.0001641
7.681e-05
8.12e-05
0.0001482
0.0001683
0.0001217
0.0002263
0.0005334
0.0005686
0.0008297
0.0006686
0.0004827
0.0008933
0.00307
0.003007
0.00212
0.001306
0.0005839
0.0006527
0.001749
0.005997
0.01105
0.01109
0.009554
0.007109
0.004677
0.002939
0.001198
0.0004569
0.0002767
0.0003184
0.0003307
0.000649
0.001413
0.00108
0.002378
0.005508
0.0376
0.5354
0.9684
0.9981
1
1
1
1
1
1
1
1
1
1
1
1
1
1
1
1
1
1
1
1
1
1
1
1
1
1
1
1
1
0.9998
0.9984
0.9972
0.996
0.9952
0.996
0.996
0.9958
0.9965
0.9964
0.9967
0.9979
0.9992
0.9998
1
1
1
1
1
1
1
1
1
1
1
1
1
1
1
1
1
1
1
1
1
1
1
1
1
1
1
1
1
1
1
1
1
1
1
1
1
1
1
1
1
1
1
1
1
1
1
1
1
1
1
1
1
1
1
1
1
1
1
1
1
1
1
0.0002139
0.0001597
0.0002047
3.884e-05
2.374e-05
1.213e-05
5.522e-06
2.893e-05
0.0001505
0.0003514
0.0003911
0.0007607
0.0004762
0.0006999
0.0005436
0.0007106
0.000495
0.0003565
0.0001324
0.0002091
0.0003536
0.0003755
0.0007426
0.0005685
0.0009015
0.001975
0.007255
0.006643
0.004743
0.002282
0.0008734
0.0005442
0.0008238
0.003201
0.009444
0.01776
0.01995
0.01126
0.006553
0.004497
0.002187
0.001033
0.0005894
0.0003782
0.0003135
0.0005451
0.001656
0.004297
0.02322
0.1958
0.8675
0.9897
0.9998
1
1
1
1
1
1
1
1
1
1
1
1
1
1
1
1
1
1
1
1
1
1
1
1
1
1
0.9999
0.999
0.9933
0.9751
0.914
0.6506
0.1877
0.0517
0.02718
0.01854
0.01431
0.01442
0.01353
0.02217
0.07313
0.3716
0.7361
0.9351
0.9858
0.9966
0.9991
0.9998
1
1
1
1
1
1
1
1
1
1
1
1
1
1
1
1
1
1
1
1
1
1
1
1
1
1
1
1
1
1
1
1
1
1
1
1
1
1
1
1
1
1
1
1
1
1
1
1
1
1
1
1
1
1
1
1
1
1
1
0.0001621
0.0001326
0.0001735
3.563e-05
5.236e-05
1.276e-05
5.918e-06
1.789e-05
0.0001207
0.0002213
0.0004833
0.0008709
0.0007315
0.001264
0.001373
0.00229
0.001588
0.0008289
0.0004123
0.0002643
0.0003371
0.0003262
0.0005742
0.0005287
0.0007779
0.001181
0.003916
0.005116
0.00614
0.00459
0.001598
0.0004659
0.0002909
0.0006186
0.00254
0.008614
0.0143
0.007767
0.004249
0.003356
0.003125
0.002523
0.001867
0.001078
0.0009164
0.00224
0.01066
0.08447
0.7432
0.9715
0.9986
0.9999
1
1
1
1
1
1
1
1
1
1
1
1
1
1
1
1
1
1
1
1
1
1
1
1
0.9999
0.9988
0.9891
0.9196
0.6893
0.1735
0.03732
0.01022
0.002182
0.0003578
0.0001115
9.486e-05
6.386e-05
5.921e-05
6.212e-05
6.258e-05
0.0001574
0.0006637
0.002372
0.005921
0.01777
0.04514
0.1664
0.6102
0.8641
0.9674
0.9957
0.9994
0.9999
1
1
1
1
1
1
1
1
1
1
1
1
1
1
1
1
1
1
1
1
1
1
1
1
1
1
1
1
1
1
1
1
1
1
1
1
1
1
1
1
1
1
1
1
1
1
1
1
1
1
1
1
1
0.9999
0.9993
0.0001311
0.0001566
0.0002946
5.124e-05
9.088e-05
1.091e-05
5.71e-06
1.059e-05
0.0001839
0.000248
0.0006311
0.0006635
0.0007617
0.001285
0.001165
0.001618
0.00181
0.001436
0.0009825
0.000351
0.0001685
0.000103
0.0002592
0.0005893
0.00117
0.001
0.0021
0.003071
0.00372
0.002941
0.001275
0.0003142
0.0001565
0.0003503
0.001499
0.006517
0.01329
0.009311
0.004864
0.004334
0.005715
0.005337
0.00438
0.003059
0.003733
0.01107
0.1206
0.821
0.9882
0.9995
1
1
1
1
1
1
1
1
1
1
1
1
1
1
1
1
1
1
1
1
1
1
1
1
0.9995
0.9939
0.9459
0.7256
0.1178
0.01609
0.002535
0.0005954
0.000161
5.142e-05
1.359e-05
4.064e-06
1.149e-06
1.432e-06
1.833e-06
1.792e-06
2.24e-06
2.986e-06
1.2e-05
6.244e-05
0.0001458
0.0002017
0.0002968
0.000421
0.0008826
0.003713
0.01174
0.04136
0.2005
0.7624
0.9437
0.9928
0.9993
0.9999
1
1
1
1
1
1
1
1
1
1
1
1
1
1
1
1
1
1
1
1
1
1
1
1
1
1
1
1
1
1
1
1
1
1
1
1
1
1
1
1
1
1
1
1
1
1
0.9998
0.9987
0.9937
0.9701
0.9153
0.8499
0.0001596
0.0002327
0.0006186
8.925e-05
0.0001136
1.115e-05
9.431e-06
2.09e-05
0.0001897
0.0002466
0.0006394
0.000747
0.001422
0.001918
0.0008738
0.0009415
0.001749
0.003083
0.002011
0.0003558
5.067e-05
2.374e-05
8.72e-05
0.0004203
0.001441
0.001292
0.001458
0.002279
0.002838
0.00199
0.001017
0.0002783
0.0001433
0.0003453
0.001097
0.004408
0.007641
0.005393
0.003307
0.003787
0.006869
0.008416
0.009023
0.009014
0.02102
0.3057
0.9262
0.9968
0.9999
1
1
1
1
1
1
1
1
1
1
1
1
1
1
1
1
1
1
1
1
1
1
1
0.9994
0.9906
0.8815
0.2065
0.01778
0.003812
0.0006186
0.0001736
6.067e-05
2.761e-05
7.461e-06
2.306e-06
4.949e-07
4.446e-07
3.037e-07
7.455e-07
1.127e-06
1.88e-06
2.328e-06
2.669e-06
5.66e-06
1.659e-05
2.047e-05
1.722e-05
1.409e-05
1.394e-05
1.944e-05
5.718e-05
0.0001331
0.000272
0.001428
0.0113
0.03566
0.2598
0.8134
0.951
0.9903
0.9989
0.9999
1
1
1
1
1
1
1
1
1
1
1
1
1
1
1
1
1
1
1
1
1
1
1
1
1
1
1
1
1
1
1
1
1
1
1
1
1
1
1
0.9998
0.9985
0.9917
0.9481
0.7359
0.2197
0.06705
0.02377
0.01316
0.004563
9.594e-05
0.0001472
0.0006418
0.000113
0.0001267
1.717e-05
1.45e-05
3.647e-05
0.0003587
0.0003629
0.0004954
0.0006759
0.002191
0.003162
0.0007404
0.0003691
0.0003895
0.001118
0.001174
0.0003848
3.427e-05
1.643e-05
4.138e-05
0.0003307
0.001401
0.001498
0.001392
0.001912
0.001612
0.0009429
0.0005164
0.0002897
0.0002535
0.0009621
0.002288
0.004623
0.004148
0.002406
0.0009505
0.0008024
0.001366
0.002735
0.00863
0.04179
0.5139
0.958
0.9981
1
1
1
1
1
1
1
1
1
1
1
1
1
1
1
1
1
1
1
1
1
1
1
0.9988
0.9846
0.7658
0.09576
0.009238
0.001539
0.000442
0.0001871
5.089e-05
3.116e-05
1.899e-05
1.49e-05
4.688e-06
3.284e-06
1.543e-06
1.945e-06
1.717e-06
4.944e-06
8.095e-06
1.523e-05
1.615e-05
1.374e-05
2.011e-05
2.27e-05
1.668e-05
1.247e-05
8.972e-06
5.561e-06
3.333e-06
4.277e-06
4.25e-06
4.976e-06
1.969e-05
9.289e-05
0.0002762
0.001503
0.01598
0.07533
0.5461
0.9695
0.9992
1
1
1
1
1
1
1
1
1
1
1
1
1
1
1
1
1
1
1
1
1
1
1
1
1
1
1
1
1
1
1
1
1
1
0.9999
0.9996
0.9978
0.9908
0.9524
0.809
0.2191
0.04649
0.009726
0.003032
0.0007863
0.0002341
7.783e-05
3.068e-05
2.671e-06
3.464e-05
5.441e-05
0.0004031
0.0001091
0.0001248
4.854e-05
4.155e-05
9.309e-05
0.001124
0.0006783
0.0004087
0.0006939
0.002727
0.004287
0.0009951
0.0003274
0.0002166