/*--------------------------------*- C++ -*----------------------------------*\
| =========                 |                                                 |
| \\      /  F ield         | OpenFOAM: The Open Source CFD Toolbox           |
|  \\    /   O peration     | Version:  5.x                                   |
|   \\  /    A nd           | Web:      www.OpenFOAM.org                      |
|    \\/     M anipulation  |                                                 |
\*---------------------------------------------------------------------------*/
FoamFile
{
    version     2.0;
    format      ascii;
    class       volScalarField;
    location    "35";
    object      gamma;
}
// * * * * * * * * * * * * * * * * * * * * * * * * * * * * * * * * * * * * * //

dimensions      [0 0 0 0 0 0 0];

internalField   nonuniform List<scalar> 
80000
(
1
1
1
1
1
1
1
1
1
1
1
1
1
1
0.99999
0.99999
0.99999
0.99999
0.99999
0.99998
0.99998
0.99998
0.99998
0.99997
0.99997
0.99997
0.99996
0.99996
0.99995
0.99995
0.99994
0.99993
0.99992
0.99992
0.99991
0.9999
0.99989
0.99988
0.99987
0.99987
0.99986
0.99985
0.99984
0.99983
0.99982
0.99981
0.9998
0.99979
0.99979
0.99978
0.99977
0.99976
0.99976
0.99975
0.99975
0.99974
0.99974
0.99973
0.99973
0.99973
0.99973
0.99972
0.99972
0.99972
0.99972
0.99972
0.99972
0.99972
0.99972
0.99971
0.99971
0.99971
0.99971
0.99971
0.99971
0.99971
0.99971
0.99971
0.99971
0.99971
0.99971
0.99971
0.99971
0.99971
0.99971
0.99972
0.99972
0.99973
0.99974
0.99975
0.99976
0.99978
0.99981
0.99982
0.99982
0.99983
0.99981
0.99978
0.99978
0.99973
0.99966
0.99958
0.99952
0.99946
0.99948
0.99948
0.99947
0.99946
0.99945
0.99944
0.99944
0.99943
0.99942
0.99942
0.99941
0.99941
0.9994
0.9994
0.99939
0.99939
0.99938
0.99938
0.99938
0.99937
0.99937
0.99936
0.99936
0.99936
0.99935
0.99935
0.99935
0.99935
0.99934
0.99934
0.99934
0.99934
0.99934
0.99934
0.99934
0.99934
0.99934
0.99934
0.99935
0.99935
0.99935
0.99936
0.99936
0.99936
0.99937
0.99937
0.99938
0.99939
0.99939
0.9994
0.9994
0.99941
0.99942
0.99942
0.99943
0.99944
0.99944
0.99945
0.99946
0.99946
0.99947
0.99947
0.99948
0.99948
0.99949
0.99949
0.99949
0.9995
0.9995
0.9995
0.99951
0.99951
0.99951
0.99951
0.99952
0.99952
0.99952
0.99952
0.99952
0.99952
0.99952
0.99952
0.99952
0.99952
0.99952
0.99952
0.99952
0.99952
0.99952
0.99951
0.99951
0.99951
0.99951
0.9995
0.9995
0.9995
0.99949
0.99949
0.99948
0.99947
0.99947
0.99946
0.99945
0.99945
0.99944
0.99943
0.99942
0.99941
0.9994
0.99939
0.99938
0.99937
0.99936
0.99936
0.99935
0.99934
0.99933
0.99932
0.99931
0.9993
0.9993
0.99929
0.99929
0.99928
0.99928
0.99928
0.99928
0.99928
0.99928
0.99928
0.99928
0.99928
0.99928
0.99929
0.99929
0.99928
0.99928
0.99928
0.99927
0.99926
0.99924
0.99922
0.99919
0.99916
0.99911
0.99905
0.99899
0.99894
0.99882
0.99854
0.9979
0.99694
0.99573
0.99463
0.99362
0.99208
0.98856
0.98002
0.95843
0.89815
0.73368
0.31861
0.078874
0.022455
0.007995
0.0035583
0.0021404
0.0017003
0.0017422
0.0019706
0.0021952
0.0021121
0.0019122
0.0019582
0.0027013
0.004357
0.0078423
0.011334
0.014181
0.014561
0.010673
0.0068467
0.0039212
0.0027637
0.0024985
0.0029691
0.0030986
0.0030767
0.0030188
0.0029598
0.0029026
0.0028633
0.0028427
0.0028293
0.0028231
0.002805
0.0027787
0.0027453
0.0027099
0.0026811
0.0026596
0.0026431
0.0026336
0.0026205
0.0025886
0.0025372
0.0024778
0.0024674
0.0026245
0.0031616
0.0036855
0.0026659
0.0015891
0.00081794
0.00053523
0.00047109
0.00057674
0.000602
0.00059139
0.00057721
0.00056806
0.00056259
0.0005577
0.00055262
0.00054745
0.00054234
0.00053734
0.00053246
0.00052767
0.00052296
0.00051834
0.00051379
0.00050933
0.00050493
0.00050062
0.00049637
0.00049221
0.00048811
0.0004841
0.00048017
0.00047631
0.00047255
0.00046887
0.00046528
0.00046179
0.0004584
0.00045512
0.00045194
0.00044888
0.00044593
0.0004431
0.0004404
0.00043783
0.00043538
0.00043307
0.0004309
0.00042886
0.00042695
0.00042519
0.00042356
0.00042207
0.00042071
0.00041948
0.00041838
0.0004174
0.00041654
0.00041579
0.00041515
0.0004146
0.00041415
0.00041378
0.00041348
0.00041325
0.00041308
0.00041297
0.00041289
0.00041285
0.00041283
0.00041284
0.00041286
0.00041288
0.00041292
0.00041297
0.00041305
0.00041308
0.00041278
0.00041187
0.00041165
0.00041519
0.00042488
0.00042908
0.00038267
0.00034082
0.00036994
0.00041112
0.00051518
1
1
1
1
1
1
1
1
1
1
1
1
1
1
1
1
0.99999
0.99999
0.99999
0.99999
0.99999
0.99999
0.99998
0.99998
0.99998
0.99998
0.99997
0.99997
0.99996
0.99996
0.99995
0.99995
0.99994
0.99993
0.99993
0.99992
0.99991
0.99991
0.9999
0.99989
0.99988
0.99988
0.99987
0.99986
0.99985
0.99985
0.99984
0.99983
0.99982
0.99982
0.99981
0.99981
0.9998
0.9998
0.99979
0.99979
0.99978
0.99978
0.99978
0.99978
0.99977
0.99977
0.99977
0.99977
0.99977
0.99977
0.99977
0.99976
0.99976
0.99976
0.99976
0.99976
0.99976
0.99976
0.99976
0.99976
0.99976
0.99976
0.99976
0.99976
0.99976
0.99976
0.99976
0.99977
0.99977
0.99978
0.99979
0.9998
0.99981
0.99983
0.99983
0.99982
0.99982
0.9998
0.99979
0.99978
0.99975
0.99972
0.9997
0.99965
0.99961
0.99959
0.99956
0.99954
0.99955
0.99955
0.99954
0.99953
0.99953
0.99952
0.99952
0.99951
0.99951
0.9995
0.9995
0.99949
0.99949
0.99949
0.99948
0.99948
0.99948
0.99947
0.99947
0.99946
0.99946
0.99946
0.99946
0.99945
0.99945
0.99945
0.99945
0.99944
0.99944
0.99944
0.99944
0.99944
0.99944
0.99944
0.99944
0.99944
0.99944
0.99944
0.99944
0.99945
0.99945
0.99945
0.99945
0.99946
0.99946
0.99947
0.99947
0.99948
0.99948
0.99949
0.99949
0.9995
0.9995
0.99951
0.99951
0.99952
0.99952
0.99953
0.99953
0.99954
0.99954
0.99955
0.99955
0.99955
0.99956
0.99956
0.99957
0.99957
0.99957
0.99957
0.99958
0.99958
0.99958
0.99958
0.99958
0.99959
0.99959
0.99959
0.99959
0.99959
0.99959
0.99959
0.99959
0.99959
0.99959
0.99959
0.99959
0.99959
0.99958
0.99958
0.99958
0.99958
0.99958
0.99957
0.99957
0.99957
0.99956
0.99956
0.99955
0.99955
0.99954
0.99954
0.99953
0.99952
0.99952
0.99951
0.9995
0.9995
0.99949
0.99948
0.99947
0.99946
0.99945
0.99945
0.99944
0.99943
0.99942
0.99941
0.99941
0.9994
0.99939
0.99939
0.99938
0.99938
0.99937
0.99937
0.99937
0.99937
0.99937
0.99937
0.99937
0.99937
0.99937
0.99937
0.99937
0.99936
0.99936
0.99935
0.99934
0.99933
0.99931
0.99929
0.99927
0.99924
0.99919
0.99914
0.99909
0.99904
0.99897
0.99881
0.99846
0.99787
0.99702
0.99602
0.99474
0.99321
0.99066
0.98644
0.97834
0.96174
0.92464
0.84244
0.6643
0.27872
0.076572
0.022612
0.0082459
0.0038388
0.0023816
0.0017762
0.0014595
0.0013185
0.0014051
0.0018548
0.0030876
0.0056754
0.0087182
0.01143
0.01246
0.010992
0.007426
0.0046164
0.0028198
0.0022407
0.0022044
0.002561
0.00265
0.002622
0.002565
0.0025135
0.0024721
0.0024462
0.0024319
0.0024229
0.0024061
0.0023835
0.0023571
0.0023275
0.0022984
0.0022767
0.0022597
0.002248
0.0022349
0.0022171
0.0021826
0.0021363
0.0020962
0.002128
0.0023455
0.0025794
0.0024627
0.0016146
0.00093486
0.00052497
0.00040252
0.00039463
0.00047049
0.00048558
0.00047582
0.00046455
0.00045736
0.00045293
0.00044892
0.00044476
0.00044056
0.00043642
0.00043238
0.00042843
0.00042456
0.00042076
0.00041703
0.00041336
0.00040975
0.00040621
0.00040273
0.0003993
0.00039594
0.00039263
0.00038939
0.00038621
0.0003831
0.00038005
0.00037707
0.00037417
0.00037134
0.00036859
0.00036592
0.00036333
0.00036084
0.00035844
0.00035613
0.00035392
0.00035182
0.00034981
0.00034792
0.00034612
0.00034444
0.00034287
0.0003414
0.00034004
0.0003388
0.00033765
0.00033661
0.00033568
0.00033484
0.00033409
0.00033343
0.00033286
0.00033237
0.00033195
0.0003316
0.00033132
0.00033108
0.0003309
0.00033076
0.00033066
0.00033059
0.00033054
0.00033051
0.0003305
0.0003305
0.00033051
0.00033053
0.00033059
0.00033061
0.00033035
0.0003296
0.00032943
0.0003324
0.00034046
0.00034387
0.00030511
0.0002707
0.00029573
0.00032872
0.00041112
1
1
1
1
1
1
1
1
1
1
1
1
1
1
1
1
1
0.99999
0.99999
0.99999
0.99999
0.99999
0.99999
0.99998
0.99998
0.99998
0.99997
0.99997
0.99997
0.99996
0.99996
0.99995
0.99995
0.99994
0.99993
0.99993
0.99992
0.99991
0.99991
0.9999
0.99989
0.99988
0.99988
0.99987
0.99986
0.99986
0.99985
0.99984
0.99984
0.99983
0.99982
0.99982
0.99981
0.99981
0.9998
0.9998
0.9998
0.99979
0.99979
0.99979
0.99979
0.99978
0.99978
0.99978
0.99978
0.99978
0.99978
0.99978
0.99978
0.99978
0.99977
0.99977
0.99977
0.99977
0.99977
0.99977
0.99977
0.99977
0.99977
0.99978
0.99978
0.99978
0.99979
0.9998
0.99981
0.99982
0.99983
0.99982
0.99982
0.99982
0.9998
0.99979
0.99978
0.99975
0.99971
0.99969
0.99965
0.99961
0.99961
0.99959
0.99956
0.99957
0.99956
0.99956
0.99956
0.99956
0.99956
0.99955
0.99955
0.99954
0.99954
0.99953
0.99953
0.99953
0.99952
0.99952
0.99951
0.99951
0.99951
0.9995
0.9995
0.9995
0.9995
0.99949
0.99949
0.99949
0.99948
0.99948
0.99948
0.99948
0.99948
0.99947
0.99947
0.99947
0.99947
0.99947
0.99947
0.99947
0.99947
0.99947
0.99947
0.99947
0.99947
0.99947
0.99948
0.99948
0.99948
0.99949
0.99949
0.99949
0.9995
0.9995
0.99951
0.99951
0.99951
0.99952
0.99952
0.99953
0.99953
0.99954
0.99954
0.99955
0.99955
0.99956
0.99956
0.99956
0.99957
0.99957
0.99957
0.99958
0.99958
0.99958
0.99959
0.99959
0.99959
0.99959
0.99959
0.9996
0.9996
0.9996
0.9996
0.9996
0.9996
0.9996
0.9996
0.9996
0.9996
0.9996
0.9996
0.9996
0.9996
0.9996
0.9996
0.9996
0.99959
0.99959
0.99959
0.99959
0.99958
0.99958
0.99958
0.99957
0.99957
0.99956
0.99956
0.99955
0.99955
0.99954
0.99954
0.99953
0.99952
0.99952
0.99951
0.9995
0.99949
0.99948
0.99948
0.99947
0.99946
0.99945
0.99944
0.99944
0.99943
0.99942
0.99941
0.99941
0.9994
0.9994
0.99939
0.99939
0.99939
0.99938
0.99938
0.99938
0.99938
0.99937
0.99937
0.99937
0.99937
0.99936
0.99935
0.99934
0.99933
0.99932
0.9993
0.99928
0.99925
0.99922
0.99918
0.99913
0.99908
0.99904
0.999
0.99891
0.9987
0.99841
0.99786
0.99724
0.9964
0.99565
0.99473
0.99334
0.99036
0.98457
0.97378
0.95507
0.92445
0.858
0.69627
0.28938
0.072128
0.020449
0.0072895
0.0031245
0.0017281
0.0013105
0.0014155
0.0020905
0.0039203
0.0066514
0.0096018
0.011213
0.010423
0.0079654
0.0050679
0.0030703
0.0022771
0.0020551
0.0021553
0.0024185
0.0024706
0.0024295
0.002374
0.0023293
0.0022978
0.002279
0.0022681
0.0022515
0.0022298
0.0022046
0.0021774
0.0021512
0.0021269
0.002109
0.0020938
0.0020817
0.0020658
0.0020432
0.0020047
0.0019614
0.0019455
0.0020339
0.0023512
0.0023336
0.0018723
0.0011152
0.00059463
0.0003854
0.00035153
0.0003756
0.00042994
0.00043689
0.00042712
0.00041757
0.00041154
0.00040761
0.00040397
0.00040022
0.00039645
0.00039275
0.00038914
0.00038562
0.00038217
0.00037879
0.00037547
0.00037221
0.00036901
0.00036586
0.00036276
0.00035972
0.00035672
0.00035378
0.0003509
0.00034807
0.00034529
0.00034257
0.00033991
0.00033732
0.00033479
0.00033233
0.00032994
0.00032762
0.00032538
0.00032322
0.00032114
0.00031915
0.00031724
0.00031542
0.0003137
0.00031207
0.00031053
0.00030908
0.00030773
0.00030648
0.00030532
0.00030425
0.00030327
0.00030239
0.00030158
0.00030086
0.00030022
0.00029966
0.00029916
0.00029873
0.00029837
0.00029805
0.00029779
0.00029758
0.00029741
0.00029727
0.00029716
0.00029708
0.00029702
0.00029698
0.00029695
0.00029693
0.00029694
0.00029697
0.00029698
0.00029674
0.00029606
0.00029591
0.00029864
0.00030602
0.00030914
0.00027366
0.0002421
0.00026532
0.00029573
0.00036994
1
1
1
1
1
1
1
1
1
1
1
1
1
1
1
1
1
1
0.99999
0.99999
0.99999
0.99999
0.99999
0.99998
0.99998
0.99998
0.99997
0.99997
0.99997
0.99996
0.99996
0.99995
0.99995
0.99994
0.99993
0.99993
0.99992
0.99991
0.99991
0.9999
0.99989
0.99989
0.99988
0.99987
0.99987
0.99986
0.99985
0.99985
0.99984
0.99983
0.99983
0.99982
0.99982
0.99981
0.99981
0.9998
0.9998
0.9998
0.99979
0.99979
0.99979
0.99979
0.99978
0.99978
0.99978
0.99978
0.99978
0.99978
0.99978
0.99978
0.99978
0.99977
0.99977
0.99977
0.99977
0.99977
0.99978
0.99978
0.99978
0.99979
0.9998
0.99981
0.99982
0.99983
0.99983
0.99982
0.99981
0.99979
0.99977
0.99977
0.99974
0.99972
0.99969
0.99963
0.99958
0.99956
0.99952
0.99947
0.99947
0.99946
0.99947
0.99951
0.99954
0.99955
0.99956
0.99955
0.99955
0.99955
0.99954
0.99954
0.99954
0.99953
0.99953
0.99953
0.99953
0.99952
0.99952
0.99952
0.99951
0.99951
0.99951
0.99951
0.9995
0.9995
0.9995
0.9995
0.99949
0.99949
0.99949
0.99949
0.99949
0.99949
0.99948
0.99948
0.99948
0.99948
0.99948
0.99948
0.99948
0.99948
0.99948
0.99948
0.99948
0.99949
0.99949
0.99949
0.99949
0.99949
0.9995
0.9995
0.9995
0.99951
0.99951
0.99951
0.99952
0.99952
0.99953
0.99953
0.99953
0.99954
0.99954
0.99955
0.99955
0.99955
0.99956
0.99956
0.99956
0.99957
0.99957
0.99957
0.99958
0.99958
0.99958
0.99958
0.99959
0.99959
0.99959
0.99959
0.99959
0.99959
0.99959
0.9996
0.9996
0.9996
0.9996
0.9996
0.9996
0.9996
0.9996
0.9996
0.9996
0.99959
0.99959
0.99959
0.99959
0.99959
0.99959
0.99958
0.99958
0.99958
0.99957
0.99957
0.99957
0.99956
0.99956
0.99955
0.99955
0.99954
0.99953
0.99953
0.99952
0.99952
0.99951
0.9995
0.99949
0.99949
0.99948
0.99947
0.99946
0.99945
0.99944
0.99944
0.99943
0.99942
0.99941
0.9994
0.9994
0.99939
0.99938
0.99938
0.99937
0.99937
0.99936
0.99936
0.99935
0.99935
0.99934
0.99934
0.99933
0.99932
0.99931
0.9993
0.99928
0.99926
0.99924
0.99922
0.99919
0.99916
0.99912
0.99908
0.99903
0.99899
0.99898
0.99897
0.99889
0.99879
0.99856
0.99826
0.99779
0.99755
0.9974
0.99736
0.99698
0.99633
0.99506
0.99296
0.98982
0.9826
0.96187
0.89772
0.70281
0.22479
0.048459
0.013043
0.0047551
0.0026236
0.002334
0.0032179
0.0051659
0.007853
0.0097429
0.0093952
0.0073068
0.0048859
0.0029891
0.0021961
0.0019436
0.0019924
0.0021911
0.002338
0.0023381
0.0022829
0.0022295
0.0021914
0.0021691
0.0021581
0.0021445
0.0021224
0.0020963
0.0020678
0.0020413
0.0020194
0.0019997
0.0019853
0.0019725
0.0019566
0.0019373
0.0019085
0.0018647
0.0018259
0.0018456
0.0020203
0.0022354
0.0018473
0.0011877
0.00061723
0.00037533
0.00029567
0.00032483
0.00037197
0.00040138
0.00039932
0.00038951
0.00038174
0.00037683
0.00037331
0.00036994
0.00036648
0.00036304
0.00035968
0.0003564
0.00035321
0.00035009
0.00034704
0.00034404
0.0003411
0.00033821
0.00033536
0.00033257
0.00032983
0.00032713
0.00032447
0.00032187
0.00031931
0.0003168
0.00031434
0.00031193
0.00030958
0.00030728
0.00030504
0.00030286
0.00030075
0.0002987
0.00029672
0.00029481
0.00029298
0.00029122
0.00028954
0.00028794
0.00028642
0.00028498
0.00028362
0.00028235
0.00028116
0.00028005
0.00027902
0.00027807
0.0002772
0.00027641
0.00027569
0.00027503
0.00027445
0.00027393
0.00027347
0.00027306
0.00027271
0.0002724
0.00027214
0.00027191
0.00027173
0.00027157
0.00027145
0.00027134
0.00027126
0.0002712
0.00027115
0.00027114
0.00027115
0.00027114
0.00027091
0.00027027
0.00027013
0.00027268
0.00027955
0.00028242
0.00024943
0.00022017
0.0002421
0.0002707
0.00034082
1
1
1
1
1
1
1
1
1
1
1
1
1
1
1
1
0.99999
0.99999
0.99999
0.99999
0.99998
0.99998
0.99998
0.99997
0.99997
0.99996
0.99996
0.99995
0.99995
0.99994
0.99994
0.99993
0.99993
0.99992
0.99991
0.9999
0.9999
0.99989
0.99988
0.99987
0.99986
0.99986
0.99985
0.99984
0.99983
0.99982
0.99981
0.99981
0.9998
0.99979
0.99978
0.99978
0.99977
0.99977
0.99976
0.99976
0.99975
0.99975
0.99974
0.99974
0.99974
0.99973
0.99973
0.99973
0.99973
0.99973
0.99972
0.99972
0.99972
0.99972
0.99972
0.99972
0.99972
0.99972
0.99973
0.99973
0.99974
0.99975
0.99976
0.99977
0.99978
0.99978
0.99978
0.99976
0.99974
0.99973
0.99969
0.99965
0.9996
0.99958
0.99953
0.99951
0.99947
0.99941
0.99935
0.99933
0.99932
0.99932
0.99937
0.9994
0.99942
0.99944
0.99945
0.99945
0.99945
0.99945
0.99945
0.99945
0.99945
0.99944
0.99944
0.99944
0.99944
0.99943
0.99943
0.99943
0.99943
0.99942
0.99942
0.99942
0.99942
0.99941
0.99941
0.99941
0.99941
0.99941
0.9994
0.9994
0.9994
0.9994
0.9994
0.9994
0.99939
0.99939
0.99939
0.99939
0.99939
0.99939
0.99939
0.99939
0.99939
0.99939
0.99939
0.99939
0.99939
0.9994
0.9994
0.9994
0.9994
0.99941
0.99941
0.99941
0.99942
0.99942
0.99942
0.99943
0.99943
0.99944
0.99944
0.99944
0.99945
0.99945
0.99946
0.99946
0.99946
0.99947
0.99947
0.99947
0.99948
0.99948
0.99948
0.99948
0.99949
0.99949
0.99949
0.99949
0.9995
0.9995
0.9995
0.9995
0.9995
0.9995
0.9995
0.99951
0.99951
0.99951
0.99951
0.99951
0.99951
0.99951
0.9995
0.9995
0.9995
0.9995
0.9995
0.9995
0.99949
0.99949
0.99949
0.99949
0.99948
0.99948
0.99947
0.99947
0.99946
0.99946
0.99945
0.99945
0.99944
0.99943
0.99943
0.99942
0.99941
0.9994
0.99939
0.99938
0.99937
0.99936
0.99936
0.99934
0.99933
0.99932
0.99931
0.9993
0.99929
0.99928
0.99927
0.99926
0.99925
0.99924
0.99923
0.99922
0.99921
0.9992
0.99919
0.99918
0.99917
0.99916
0.99915
0.99913
0.99912
0.9991
0.99908
0.99905
0.99903
0.999
0.99896
0.99893
0.99889
0.99885
0.99881
0.99877
0.99876
0.99878
0.99879
0.99881
0.99875
0.99865
0.99849
0.99846
0.99856
0.99868
0.99868
0.99856
0.9983
0.99801
0.99781
0.99718
0.99474
0.98721
0.96547
0.89895
0.70064
0.24383
0.053897
0.016172
0.0093202
0.0078197
0.0083218
0.0084944
0.0075999
0.0059602
0.0042733
0.0027855
0.0021651
0.0019964
0.0020994
0.00236
0.0025953
0.0026355
0.0025851
0.0025096
0.0024526
0.0024164
0.0023995
0.0023834
0.002364
0.0023322
0.0022991
0.0022691
0.0022452
0.0022249
0.0022069
0.0021913
0.0021721
0.0021513
0.0021275
0.0020906
0.002039
0.0020033
0.0020727
0.0023831
0.0023605
0.001627
0.00089533
0.00046149
0.00031132
0.00031012
0.00039101
0.00045065
0.00045875
0.00044792
0.00043668
0.00042932
0.00042456
0.00042071
0.0004169
0.00041304
0.00040923
0.00040552
0.0004019
0.00039838
0.00039494
0.00039157
0.00038827
0.00038503
0.00038186
0.00037873
0.00037567
0.00037265
0.00036969
0.00036677
0.00036391
0.0003611
0.00035834
0.00035563
0.00035298
0.00035039
0.00034786
0.00034538
0.00034298
0.00034064
0.00033837
0.00033617
0.00033404
0.000332
0.00033003
0.00032814
0.00032634
0.00032463
0.000323
0.00032145
0.00032
0.00031863
0.00031734
0.00031615
0.00031504
0.00031401
0.00031306
0.00031219
0.00031139
0.00031067
0.00031002
0.00030943
0.00030891
0.00030844
0.00030802
0.00030766
0.00030734
0.00030707
0.00030683
0.00030663
0.00030647
0.00030633
0.00030621
0.00030612
0.00030607
0.00030606
0.00030604
0.00030577
0.00030504
0.00030489
0.00030771
0.00031531
0.0003185
0.00028199
0.00024943
0.00027366
0.00030511
0.00038268
0.99999
0.99999
1
1
1
1
1
1
1
1
1
1
1
1
0.99999
0.99999
0.99999
0.99999
0.99998
0.99998
0.99997
0.99997
0.99996
0.99996
0.99995
0.99995
0.99994
0.99994
0.99993
0.99992
0.99991
0.99991
0.9999
0.99989
0.99988
0.99987
0.99986
0.99985
0.99984
0.99983
0.99982
0.99981
0.9998
0.99979
0.99978
0.99977
0.99976
0.99976
0.99975
0.99974
0.99973
0.99972
0.99971
0.99971
0.9997
0.99969
0.99969
0.99968
0.99968
0.99967
0.99967
0.99967
0.99966
0.99966
0.99966
0.99965
0.99965
0.99965
0.99965
0.99965
0.99965
0.99966
0.99967
0.99968
0.99969
0.99971
0.99972
0.99972
0.99972
0.99971
0.99969
0.99966
0.99965
0.99961
0.99956
0.99952
0.99945
0.99938
0.99934
0.99931
0.99925
0.99924
0.99921
0.99919
0.99919
0.99925
0.99928
0.99931
0.99932
0.99933
0.99933
0.99934
0.99933
0.99933
0.99933
0.99933
0.99933
0.99933
0.99933
0.99933
0.99933
0.99933
0.99932
0.99932
0.99932
0.99932
0.99932
0.99931
0.99931
0.99931
0.99931
0.99931
0.9993
0.9993
0.9993
0.9993
0.9993
0.99929
0.99929
0.99929
0.99929
0.99929
0.99929
0.99929
0.99929
0.99928
0.99928
0.99928
0.99928
0.99928
0.99928
0.99928
0.99928
0.99929
0.99929
0.99929
0.99929
0.99929
0.99929
0.9993
0.9993
0.9993
0.9993
0.99931
0.99931
0.99931
0.99932
0.99932
0.99933
0.99933
0.99933
0.99934
0.99934
0.99935
0.99935
0.99935
0.99936
0.99936
0.99936
0.99937
0.99937
0.99937
0.99937
0.99938
0.99938
0.99938
0.99938
0.99939
0.99939
0.99939
0.99939
0.99939
0.99939
0.9994
0.9994
0.9994
0.9994
0.9994
0.9994
0.9994
0.9994
0.99939
0.99939
0.99939
0.99939
0.99939
0.99939
0.99938
0.99938
0.99938
0.99937
0.99937
0.99936
0.99936
0.99935
0.99935
0.99934
0.99934
0.99933
0.99932
0.99931
0.99931
0.9993
0.99929
0.99928
0.99927
0.99926
0.99924
0.99923
0.99922
0.99921
0.99919
0.99918
0.99917
0.99915
0.99914
0.99912
0.99911
0.99909
0.99908
0.99906
0.99905
0.99903
0.99902
0.999
0.99898
0.99897
0.99895
0.99893
0.99891
0.99888
0.99886
0.99883
0.9988
0.99877
0.99873
0.9987
0.99866
0.99863
0.99859
0.99856
0.99854
0.99853
0.99854
0.99859
0.99868
0.99874
0.99878
0.99877
0.99881
0.99894
0.99905
0.9991
0.99914
0.99911
0.99907
0.99903
0.99902
0.99861
0.99763
0.99508
0.98819
0.96722
0.90533
0.71228
0.25139
0.073871
0.031931
0.017946
0.0097197
0.0053583
0.0031652
0.0020078
0.0016479
0.001734
0.002069
0.0025178
0.0028888
0.0029847
0.0029474
0.0028648
0.002777
0.0027196
0.0026847
0.0026635
0.0026402
0.0026135
0.0025714
0.0025324
0.0025036
0.0024808
0.0024619
0.0024461
0.0024267
0.0024018
0.0023771
0.0023499
0.0023059
0.0022471
0.0022177
0.002342
0.0028034
0.0023867
0.0014194
0.0007048
0.00041759
0.0003214
0.00039787
0.00050774
0.00053678
0.00052478
0.00050634
0.00049365
0.00048617
0.00048099
0.00047643
0.00047196
0.00046754
0.00046323
0.00045905
0.00045497
0.00045099
0.0004471
0.0004433
0.00043957
0.00043591
0.00043233
0.00042881
0.00042536
0.00042196
0.00041863
0.00041536
0.00041214
0.00040898
0.00040588
0.00040284
0.00039986
0.00039694
0.00039409
0.00039131
0.0003886
0.00038596
0.00038339
0.00038091
0.0003785
0.00037618
0.00037395
0.0003718
0.00036975
0.00036778
0.00036591
0.00036413
0.00036245
0.00036086
0.00035937
0.00035796
0.00035665
0.00035543
0.0003543
0.00035325
0.00035229
0.0003514
0.0003506
0.00034986
0.00034919
0.00034859
0.00034805
0.00034757
0.00034714
0.00034677
0.00034644
0.00034615
0.00034591
0.0003457
0.00034552
0.00034538
0.00034529
0.00034524
0.00034519
0.00034487
0.00034405
0.00034386
0.00034698
0.00035538
0.00035892
0.0003185
0.00028242
0.00030914
0.00034387
0.00042908
0.99998
0.99999
0.99999
1
1
1
1
1
1
1
1
0.99999
0.99999
0.99999
0.99999
0.99998
0.99998
0.99998
0.99997
0.99997
0.99997
0.99996
0.99996
0.99995
0.99994
0.99994
0.99993
0.99992
0.99992
0.99991
0.9999
0.99989
0.99989
0.99988
0.99987
0.99986
0.99985
0.99984
0.99983
0.99982
0.99981
0.99979
0.99978
0.99977
0.99976
0.99975
0.99974
0.99973
0.99972
0.99971
0.9997
0.99969
0.99968
0.99967
0.99967
0.99966
0.99965
0.99965
0.99964
0.99964
0.99963
0.99963
0.99962
0.99962
0.99962
0.99962
0.99962
0.99962
0.99962
0.99963
0.99964
0.99966
0.99968
0.99968
0.99968
0.99967
0.99967
0.99964
0.99963
0.99961
0.99956
0.99951
0.99946
0.99939
0.99932
0.99929
0.99922
0.99915
0.99913
0.99911
0.9991
0.99915
0.99919
0.99922
0.99925
0.99927
0.99928
0.99929
0.99929
0.99929
0.99928
0.99928
0.99928
0.99927
0.99927
0.99927
0.99927
0.99928
0.99928
0.99928
0.99928
0.99927
0.99927
0.99927
0.99927
0.99927
0.99927
0.99927
0.99927
0.99927
0.99926
0.99926
0.99926
0.99926
0.99926
0.99926
0.99926
0.99926
0.99925
0.99925
0.99925
0.99925
0.99925
0.99925
0.99925
0.99925
0.99925
0.99925
0.99924
0.99924
0.99924
0.99924
0.99925
0.99925
0.99925
0.99925
0.99925
0.99925
0.99925
0.99925
0.99925
0.99926
0.99926
0.99926
0.99926
0.99927
0.99927
0.99927
0.99928
0.99928
0.99928
0.99929
0.99929
0.99929
0.9993
0.9993
0.9993
0.99931
0.99931
0.99931
0.99932
0.99932
0.99932
0.99932
0.99933
0.99933
0.99933
0.99933
0.99934
0.99934
0.99934
0.99934
0.99934
0.99934
0.99935
0.99935
0.99935
0.99935
0.99935
0.99935
0.99935
0.99935
0.99934
0.99934
0.99934
0.99934
0.99934
0.99934
0.99933
0.99933
0.99933
0.99932
0.99932
0.99931
0.99931
0.9993
0.9993
0.99929
0.99928
0.99928
0.99927
0.99926
0.99925
0.99924
0.99923
0.99922
0.99921
0.9992
0.99919
0.99917
0.99916
0.99914
0.99913
0.99911
0.99909
0.99908
0.99906
0.99904
0.99902
0.999
0.99898
0.99896
0.99894
0.99892
0.9989
0.99887
0.99885
0.99883
0.9988
0.99877
0.99875
0.99872
0.99868
0.99865
0.99862
0.99858
0.99855
0.99852
0.99849
0.99847
0.99845
0.99844
0.99844
0.99846
0.99849
0.99856
0.99864
0.99873
0.99884
0.99895
0.99907
0.99915
0.99918
0.99922
0.9992
0.99921
0.99927
0.99937
0.99934
0.99919
0.99869
0.99756
0.9947
0.98638
0.96141
0.88197
0.67023
0.24548
0.06818
0.019249
0.0063619
0.0023532
0.0012849
0.0010887
0.0013035
0.0018013
0.0023554
0.0027286
0.0028866
0.0029169
0.0028761
0.0028127
0.0027663
0.0027278
0.0026991
0.0026699
0.0026394
0.0025952
0.0025576
0.0025291
0.0025072
0.0024907
0.0024712
0.0024481
0.0024207
0.0023965
0.0023711
0.0023274
0.002268
0.0022467
0.0024
0.0029308
0.0021365
0.0012094
0.0005948
0.00037425
0.00031141
0.00044449
0.00053604
0.00054916
0.00053083
0.00051132
0.00049872
0.00049073
0.00048455
0.00047902
0.00047388
0.00046908
0.00046456
0.00046023
0.00045603
0.00045192
0.00044791
0.00044397
0.00044012
0.00043634
0.00043264
0.00042901
0.00042545
0.00042195
0.00041852
0.00041516
0.00041185
0.00040861
0.00040543
0.00040231
0.00039925
0.00039626
0.00039334
0.00039049
0.00038771
0.000385
0.00038237
0.00037982
0.00037735
0.00037496
0.00037266
0.00037045
0.00036832
0.00036629
0.00036435
0.00036251
0.00036075
0.00035909
0.00035753
0.00035605
0.00035467
0.00035337
0.00035217
0.00035104
0.00035
0.00034904
0.00034816
0.00034735
0.00034661
0.00034594
0.00034533
0.00034478
0.00034428
0.00034384
0.00034345
0.00034311
0.00034281
0.00034255
0.00034233
0.00034215
0.00034202
0.00034194
0.00034186
0.00034152
0.00034068
0.00034048
0.00034355
0.00035188
0.00035538
0.00031531
0.00027955
0.00030602
0.00034046
0.00042488
0.99998
0.99999
0.99999
1
0.99999
0.99999
0.99999
0.99999
0.99999
0.99999
0.99999
0.99999
0.99999
0.99998
0.99998
0.99998
0.99997
0.99997
0.99997
0.99996
0.99996
0.99995
0.99995
0.99994
0.99993
0.99993
0.99992
0.99991
0.99991
0.9999
0.99989
0.99988
0.99987
0.99986
0.99985
0.99984
0.99983
0.99982
0.99981
0.9998
0.99979
0.99978
0.99976
0.99975
0.99974
0.99973
0.99972
0.9997
0.99969
0.99968
0.99967
0.99966
0.99965
0.99964
0.99963
0.99962
0.99962
0.99961
0.9996
0.9996
0.99959
0.99959
0.99959
0.99959
0.99959
0.9996
0.9996
0.99961
0.99962
0.99964
0.99965
0.99965
0.99965
0.99962
0.99958
0.99956
0.99954
0.9995
0.99947
0.99941
0.99933
0.99925
0.99922
0.99916
0.99909
0.99907
0.99906
0.99907
0.99912
0.99916
0.99919
0.9992
0.99922
0.99923
0.99924
0.99924
0.99924
0.99924
0.99924
0.99923
0.99923
0.99923
0.99923
0.99923
0.99923
0.99923
0.99923
0.99923
0.99923
0.99923
0.99923
0.99923
0.99923
0.99923
0.99923
0.99923
0.99923
0.99923
0.99923
0.99923
0.99923
0.99923
0.99923
0.99923
0.99923
0.99923
0.99923
0.99922
0.99922
0.99922
0.99922
0.99922
0.99922
0.99922
0.99922
0.99922
0.99922
0.99922
0.99922
0.99922
0.99922
0.99922
0.99922
0.99922
0.99922
0.99922
0.99922
0.99922
0.99922
0.99922
0.99922
0.99922
0.99922
0.99922
0.99923
0.99923
0.99923
0.99923
0.99923
0.99924
0.99924
0.99924
0.99924
0.99925
0.99925
0.99925
0.99926
0.99926
0.99926
0.99926
0.99927
0.99927
0.99927
0.99928
0.99928
0.99928
0.99928
0.99929
0.99929
0.99929
0.99929
0.99929
0.9993
0.9993
0.9993
0.9993
0.9993
0.9993
0.9993
0.9993
0.9993
0.9993
0.9993
0.9993
0.9993
0.99929
0.99929
0.99929
0.99929
0.99929
0.99928
0.99928
0.99928
0.99927
0.99927
0.99926
0.99926
0.99925
0.99924
0.99924
0.99923
0.99922
0.99921
0.99921
0.9992
0.99919
0.99917
0.99916
0.99915
0.99913
0.99912
0.9991
0.99908
0.99906
0.99904
0.99902
0.999
0.99898
0.99895
0.99893
0.9989
0.99888
0.99885
0.99882
0.9988
0.99877
0.99874
0.99871
0.99868
0.99865
0.99861
0.99858
0.99854
0.99851
0.99847
0.99844
0.99841
0.99839
0.99837
0.99836
0.99835
0.99835
0.99836
0.99838
0.99841
0.99846
0.99851
0.99857
0.99863
0.9987
0.99877
0.99886
0.99898
0.99911
0.99918
0.99923
0.9993
0.99943
0.99949
0.99946
0.9993
0.99889
0.99787
0.99609
0.99193
0.97814
0.9387
0.83138
0.54035
0.11132
0.021426
0.0053373
0.0019739
0.0012668
0.0012101
0.0014316
0.0016936
0.0020415
0.0023486
0.0025898
0.0027196
0.0027642
0.0027622
0.0027368
0.0027079
0.0026746
0.0026404
0.0025985
0.002563
0.0025352
0.0025132
0.0024933
0.0024695
0.0024441
0.0024171
0.0023958
0.002374
0.0023318
0.0022742
0.0022564
0.0024074
0.0029268
0.002116
0.0011812
0.00056937
0.00035104
0.00028823
0.00041152
0.00050391
0.00052795
0.00052113
0.0005089
0.00049925
0.00049123
0.00048371
0.00047662
0.00047024
0.0004646
0.00045959
0.000455
0.00045066
0.00044648
0.00044241
0.00043842
0.0004345
0.00043067
0.0004269
0.00042322
0.0004196
0.00041606
0.00041259
0.00040918
0.00040584
0.00040256
0.00039935
0.0003962
0.00039311
0.0003901
0.00038715
0.00038427
0.00038147
0.00037874
0.00037608
0.0003735
0.000371
0.00036859
0.00036626
0.00036401
0.00036186
0.00035979
0.00035781
0.00035592
0.00035413
0.00035242
0.00035081
0.00034928
0.00034785
0.0003465
0.00034523
0.00034405
0.00034295
0.00034193
0.00034098
0.00034011
0.0003393
0.00033856
0.00033789
0.00033728
0.00033672
0.00033622
0.00033578
0.00033538
0.00033503
0.00033472
0.00033445
0.00033423
0.00033406
0.00033395
0.00033384
0.00033347
0.00033263
0.00033241
0.0003354
0.00034355
0.00034698
0.00030771
0.00027268
0.00029864
0.0003324
0.00041519
0.99996
0.99998
0.99999
0.99999
0.99999
0.99999
0.99999
0.99999
0.99998
0.99998
0.99998
0.99998
0.99998
0.99997
0.99997
0.99997
0.99996
0.99996
0.99996
0.99995
0.99995
0.99994
0.99994
0.99993
0.99992
0.99992
0.99991
0.9999
0.99989
0.99989
0.99988
0.99987
0.99986
0.99985
0.99984
0.99983
0.99981
0.9998
0.99979
0.99978
0.99976
0.99975
0.99974
0.99972
0.99971
0.9997
0.99968
0.99967
0.99966
0.99965
0.99963
0.99962
0.99961
0.9996
0.99959
0.99958
0.99957
0.99956
0.99956
0.99955
0.99955
0.99955
0.99956
0.99957
0.99959
0.9996
0.99962
0.99962
0.99961
0.9996
0.99957
0.99954
0.99952
0.99947
0.9994
0.99933
0.9993
0.99923
0.9992
0.99915
0.99907
0.99899
0.99898
0.99897
0.99899
0.99905
0.99909
0.99913
0.99915
0.99916
0.99917
0.99918
0.99918
0.99918
0.99918
0.99918
0.99917
0.99917
0.99917
0.99917
0.99916
0.99916
0.99916
0.99917
0.99917
0.99917
0.99917
0.99917
0.99917
0.99918
0.99918
0.99918
0.99918
0.99918
0.99918
0.99918
0.99918
0.99918
0.99918
0.99918
0.99918
0.99918
0.99918
0.99918
0.99918
0.99918
0.99918
0.99918
0.99918
0.99918
0.99918
0.99918
0.99918
0.99918
0.99918
0.99918
0.99918
0.99918
0.99918
0.99918
0.99918
0.99918
0.99918
0.99917
0.99917
0.99917
0.99917
0.99917
0.99917
0.99917
0.99917
0.99917
0.99917
0.99917
0.99917
0.99917
0.99917
0.99918
0.99918
0.99918
0.99918
0.99918
0.99918
0.99919
0.99919
0.99919
0.99919
0.99919
0.9992
0.9992
0.9992
0.9992
0.99921
0.99921
0.99921
0.99921
0.99922
0.99922
0.99922
0.99922
0.99923
0.99923
0.99923
0.99923
0.99923
0.99924
0.99924
0.99924
0.99924
0.99924
0.99924
0.99924
0.99924
0.99924
0.99924
0.99924
0.99924
0.99923
0.99923
0.99923
0.99923
0.99923
0.99922
0.99922
0.99922
0.99921
0.99921
0.9992
0.99919
0.99919
0.99918
0.99917
0.99917
0.99916
0.99915
0.99914
0.99912
0.99911
0.9991
0.99908
0.99906
0.99904
0.99902
0.999
0.99898