/*--------------------------------*- C++ -*----------------------------------*\
| =========                 |                                                 |
| \\      /  F ield         | OpenFOAM: The Open Source CFD Toolbox           |
|  \\    /   O peration     | Version:  5.x                                   |
|   \\  /    A nd           | Web:      www.OpenFOAM.org                      |
|    \\/     M anipulation  |                                                 |
\*---------------------------------------------------------------------------*/
FoamFile
{
    version     2.0;
    format      ascii;
    class       volScalarField;
    location    "10";
    object      gamma;
}
// * * * * * * * * * * * * * * * * * * * * * * * * * * * * * * * * * * * * * //

dimensions      [0 0 0 0 0 0 0];

internalField   nonuniform List<scalar> 
80000
(
0.93124
0.92983
0.92467
0.91574
0.90296
0.89179
0.88645
0.88233
0.87823
0.87421
0.87042
0.86696
0.86378
0.86083
0.85807
0.85546
0.85299
0.85064
0.84839
0.84625
0.8442
0.84222
0.84032
0.83849
0.83672
0.83501
0.83335
0.83175
0.83019
0.82867
0.8272
0.82576
0.82436
0.823
0.82167
0.82038
0.81911
0.81788
0.81667
0.81549
0.81434
0.81322
0.81212
0.81105
0.81001
0.80899
0.808
0.80703
0.80609
0.80518
0.80428
0.80341
0.80257
0.80174
0.80094
0.80016
0.79941
0.79867
0.79796
0.79728
0.79662
0.79599
0.79539
0.79482
0.79428
0.79378
0.79331
0.79287
0.79246
0.79207
0.79171
0.79138
0.79108
0.79082
0.7906
0.79043
0.79032
0.79025
0.79023
0.79026
0.79034
0.79046
0.79066
0.79094
0.79133
0.79181
0.79238
0.793
0.79364
0.79436
0.79528
0.79658
0.79842
0.79737
0.79479
0.79187
0.78421
0.77553
0.76874
0.75626
0.74201
0.72896
0.71822
0.71012
0.70877
0.7067
0.70428
0.70182
0.69948
0.69728
0.69522
0.69327
0.6914
0.68961
0.68788
0.68622
0.6846
0.68304
0.68152
0.68003
0.67859
0.67717
0.67578
0.67442
0.67308
0.67176
0.67046
0.66918
0.66792
0.66667
0.66544
0.66422
0.66301
0.66181
0.66062
0.65943
0.65826
0.6571
0.65594
0.65479
0.65364
0.6525
0.65136
0.65023
0.6491
0.64797
0.64685
0.64573
0.64461
0.6435
0.64238
0.64127
0.64016
0.63905
0.63794
0.63683
0.63572
0.6346
0.63349
0.63238
0.63127
0.63015
0.62904
0.62792
0.6268
0.62568
0.62456
0.62344
0.62231
0.62118
0.62005
0.61891
0.61777
0.61663
0.61548
0.61433
0.61318
0.61202
0.61085
0.60968
0.60853
0.60739
0.60626
0.60513
0.60398
0.6028
0.60162
0.60044
0.59926
0.59807
0.59687
0.59567
0.59446
0.59325
0.59203
0.5908
0.58957
0.58833
0.58709
0.58584
0.58458
0.58331
0.58204
0.58077
0.57948
0.57819
0.57689
0.57559
0.57428
0.57296
0.57163
0.5703
0.56896
0.5676
0.56625
0.56488
0.5635
0.56211
0.56071
0.55929
0.55788
0.55645
0.55506
0.55367
0.55228
0.55087
0.54944
0.54797
0.5465
0.54503
0.54354
0.54205
0.54054
0.53903
0.5375
0.53596
0.53441
0.53285
0.53128
0.52969
0.5281
0.52649
0.52487
0.52324
0.52159
0.51993
0.51825
0.51656
0.51485
0.51312
0.51137
0.50967
0.50797
0.50627
0.50454
0.50277
0.50095
0.49914
0.49731
0.49548
0.49362
0.49175
0.48986
0.48795
0.48602
0.48405
0.48205
0.48004
0.47811
0.47621
0.47433
0.47243
0.4705
0.46859
0.46684
0.4653
0.46268
0.45743
0.44891
0.43896
0.42907
0.42256
0.41913
0.41866
0.42167
0.42614
0.43108
0.43368
0.43361
0.43131
0.42953
0.42804
0.42618
0.42376
0.42072
0.41772
0.41473
0.4117
0.40863
0.40552
0.40236
0.39917
0.39593
0.39338
0.39152
0.38991
0.38818
0.3857
0.38224
0.3784
0.37458
0.37079
0.36703
0.36331
0.35962
0.35598
0.35238
0.34882
0.3453
0.34184
0.33842
0.33505
0.33174
0.32848
0.32527
0.32213
0.31904
0.31601
0.31304
0.31013
0.30729
0.30451
0.3018
0.29915
0.29657
0.29406
0.29162
0.28925
0.28695
0.28472
0.28256
0.28048
0.27847
0.27653
0.27466
0.27287
0.27116
0.26951
0.26794
0.26645
0.26503
0.26368
0.2624
0.26119
0.26005
0.25899
0.25799
0.25705
0.25619
0.25538
0.25464
0.25396
0.25334
0.25277
0.25226
0.2518
0.25138
0.25102
0.25069
0.25041
0.25016
0.24995
0.24978
0.24963
0.2495
0.2494
0.24932
0.24926
0.24922
0.24918
0.24916
0.24914
0.24913
0.24912
0.24912
0.24912
0.24912
0.24912
0.24912
0.24912
0.24911
0.24912
0.24915
0.2492
0.24887
0.24672
0.24497
0.24689
0.24921
0.25359
0.9253
0.92539
0.92194
0.91557
0.90483
0.89504
0.89024
0.88645
0.88259
0.87876
0.87512
0.87176
0.86867
0.86578
0.86306
0.86049
0.85805
0.85572
0.8535
0.85137
0.84933
0.84737
0.84548
0.84365
0.84189
0.84018
0.83853
0.83693
0.83537
0.83386
0.83239
0.83096
0.82957
0.82821
0.82688
0.82559
0.82433
0.82309
0.82189
0.82072
0.81957
0.81845
0.81736
0.81629
0.81525
0.81424
0.81325
0.81229
0.81135
0.81044
0.80955
0.80869
0.80784
0.80703
0.80623
0.80546
0.80471
0.80398
0.80328
0.8026
0.80195
0.80132
0.80072
0.80016
0.79962
0.79913
0.79866
0.79823
0.79782
0.79745
0.7971
0.79677
0.79648
0.79622
0.79601
0.79584
0.79572
0.79564
0.79562
0.79565
0.79574
0.7959
0.79614
0.79649
0.79696
0.79754
0.79821
0.7989
0.79959
0.80034
0.79896
0.7965
0.79396
0.78821
0.78203
0.77747
0.76896
0.75965
0.75167
0.74167
0.73145
0.72489
0.71829
0.71298
0.71174
0.70985
0.70764
0.70537
0.70318
0.7011
0.69914
0.69726
0.69545
0.6937
0.69201
0.69037
0.68878
0.68724
0.68573
0.68425
0.68281
0.6814
0.68001
0.67865
0.67731
0.67599
0.67469
0.6734
0.67213
0.67087
0.66963
0.6684
0.66718
0.66597
0.66477
0.66358
0.6624
0.66122
0.66005
0.65889
0.65773
0.65657
0.65542
0.65428
0.65314
0.652
0.65086
0.64973
0.64859
0.64746
0.64633
0.64521
0.64408
0.64295
0.64183
0.6407
0.63957
0.63845
0.63732
0.63619
0.63506
0.63393
0.6328
0.63166
0.63053
0.62939
0.62825
0.62711
0.62596
0.62482
0.62367
0.62251
0.62135
0.62019
0.61903
0.61786
0.61669
0.61552
0.61435
0.61318
0.61201
0.61085
0.60969
0.60853
0.60734
0.60614
0.60494
0.60374
0.60253
0.60132
0.6001
0.59887
0.59764
0.59641
0.59516
0.59391
0.59266
0.5914
0.59013
0.58886
0.58757
0.58629
0.58499
0.58369
0.58238
0.58107
0.57974
0.57841
0.57708
0.57573
0.57438
0.57302
0.57165
0.57027
0.56888
0.56749
0.56608
0.56466
0.56324
0.56181
0.56038
0.55895
0.55753
0.5561
0.55467
0.55321
0.55174
0.55024
0.54874
0.54724
0.54572
0.54419
0.54266
0.54111
0.53955
0.53797
0.53639
0.53479
0.53319
0.53157
0.52994
0.52829
0.52664
0.52496
0.52328
0.52158
0.51986
0.51813
0.51639
0.51463
0.51288
0.51114
0.5094
0.50764
0.50586
0.50404
0.50218
0.50032
0.49846
0.49657
0.49468
0.49276
0.49082
0.48886
0.48687
0.48486
0.48283
0.48081
0.47886
0.47692
0.475
0.47304
0.47107
0.46916
0.46742
0.46503
0.46077
0.45391
0.44463
0.43453
0.42663
0.42154
0.41948
0.4202
0.42373
0.42818
0.43235
0.43397
0.43333
0.43112
0.42932
0.42763
0.42547
0.42281
0.41969
0.41661
0.41353
0.41042
0.40727
0.40407
0.40083
0.39756
0.39442
0.39205
0.39024
0.38864
0.38656
0.38375
0.38008
0.37618
0.3723
0.36846
0.36465
0.36088
0.35714
0.35345
0.3498
0.34619
0.34263
0.33912
0.33566
0.33225
0.32889
0.32559
0.32235
0.31916
0.31604
0.31297
0.30996
0.30702
0.30415
0.30133
0.29859
0.29591
0.2933
0.29076
0.28829
0.28589
0.28356
0.2813
0.27912
0.27701
0.27497
0.27301
0.27112
0.26931
0.26756
0.2659
0.2643
0.26279
0.26134
0.25997
0.25867
0.25744
0.25628
0.25519
0.25417
0.25321
0.25233
0.2515
0.25074
0.25004
0.24939
0.24881
0.24827
0.24779
0.24736
0.24697
0.24663
0.24633
0.24607
0.24584
0.24565
0.24548
0.24534
0.24523
0.24513
0.24506
0.245
0.24496
0.24492
0.2449
0.24488
0.24487
0.24486
0.24485
0.24485
0.24485
0.24485
0.24484
0.24484
0.24485
0.24488
0.24493
0.2446
0.24239
0.24062
0.24262
0.24492
0.24921
0.91321
0.91512
0.9136
0.90995
0.90138
0.89317
0.88911
0.88577
0.88226
0.8787
0.87528
0.87208
0.8691
0.8663
0.86365
0.86113
0.85873
0.85643
0.85423
0.85213
0.8501
0.84815
0.84626
0.84445
0.84269
0.84099
0.83934
0.83774
0.83618
0.83467
0.8332
0.83177
0.83038
0.82902
0.8277
0.82641
0.82515
0.82392
0.82272
0.82154
0.8204
0.81928
0.81819
0.81713
0.81609
0.81508
0.81409
0.81313
0.8122
0.81129
0.81041
0.80955
0.80871
0.8079
0.80711
0.80634
0.8056
0.80488
0.80419
0.80352
0.80287
0.80225
0.80166
0.8011
0.80057
0.80008
0.79962
0.7992
0.7988
0.79844
0.7981
0.79779
0.79752
0.79728
0.79707
0.7969
0.79677
0.79669
0.79666
0.7967
0.79682
0.79703
0.79734
0.79778
0.79836
0.79907
0.79799
0.79576
0.79301
0.7907
0.78636
0.78245
0.77806
0.77044
0.76235
0.7554
0.74688
0.73858
0.73393
0.72743
0.72102
0.71779
0.71418
0.71119
0.7101
0.70845
0.70651
0.70451
0.70254
0.70065
0.69883
0.69707
0.69536
0.69369
0.69207
0.69049
0.68895
0.68744
0.68597
0.68452
0.68311
0.68171
0.68034
0.679
0.67767
0.67636
0.67506
0.67378
0.67252
0.67127
0.67003
0.6688
0.66758
0.66637
0.66517
0.66398
0.6628
0.66162
0.66044
0.65928
0.65812
0.65696
0.6558
0.65465
0.65351
0.65236
0.65122
0.65008
0.64895
0.64781
0.64667
0.64554
0.64441
0.64327
0.64214
0.64101
0.63988
0.63874
0.63761
0.63647
0.63534
0.6342
0.63306
0.63192
0.63077
0.62963
0.62848
0.62733
0.62618
0.62502
0.62386
0.6227
0.62153
0.62036
0.61919
0.61802
0.61686
0.6157
0.61452
0.61335
0.61217
0.611
0.60982
0.60864
0.60743
0.60622
0.60501
0.60379
0.60257
0.60135
0.60012
0.59888
0.59764
0.59639
0.59514
0.59388
0.59262
0.59134
0.59006
0.58878
0.58749
0.58619
0.58488
0.58357
0.58225
0.58093
0.57959
0.57825
0.5769
0.57555
0.57418
0.57281
0.57143
0.57004
0.56864
0.56722
0.56581
0.56439
0.56297
0.56155
0.56012
0.55868
0.55725
0.5558
0.55434
0.55286
0.55136
0.54985
0.54834
0.54682
0.54529
0.54374
0.54219
0.54063
0.53905
0.53747
0.53587
0.53426
0.53264
0.53101
0.52936
0.5277
0.52603
0.52434
0.52264
0.52092
0.5192
0.51746
0.51572
0.51397
0.51221
0.51046
0.50869
0.5069
0.50509
0.50325
0.50138
0.4995
0.49762
0.49572
0.4938
0.49186
0.4899
0.48792
0.48593
0.48392
0.48191
0.47991
0.47796
0.47602
0.47406
0.47209
0.47015
0.46829
0.46591
0.46212
0.45618
0.44802
0.43835
0.43003
0.42388
0.42063
0.42027
0.42219
0.42602
0.43026
0.43282
0.43339
0.43225
0.43016
0.42836
0.4263
0.42385
0.421
0.41786
0.41476
0.41165
0.40852
0.40534
0.40212
0.39886
0.39571
0.39286
0.3907
0.3889
0.38712
0.38471
0.38163
0.37786
0.37398
0.37013
0.36631
0.36253
0.35878
0.35507
0.3514
0.34777
0.34419
0.34065
0.33716
0.33372
0.33033
0.32699
0.32371
0.32048
0.31731
0.3142
0.31115
0.30816
0.30523
0.30237
0.29957
0.29683
0.29416
0.29156
0.28903
0.28656
0.28417
0.28184
0.27959
0.27741
0.2753
0.27326
0.2713
0.26941
0.26759
0.26584
0.26417
0.26257
0.26105
0.25959
0.25821
0.2569
0.25566
0.25449
0.25339
0.25235
0.25138
0.25048
0.24964
0.24886
0.24814
0.24747
0.24687
0.24631
0.24581
0.24536
0.24495
0.24459
0.24426
0.24398
0.24373
0.24351
0.24333
0.24317
0.24304
0.24293
0.24283
0.24276
0.2427
0.24265
0.24262
0.24259
0.24257
0.24255
0.24254
0.24253
0.24253
0.24252
0.24252
0.24252
0.24252
0.24255
0.24261
0.24227
0.24004
0.23824
0.24029
0.24262
0.24689
0.89173
0.89662
0.89811
0.8984
0.89289
0.88689
0.88395
0.88138
0.87846
0.87536
0.8723
0.86938
0.86662
0.86399
0.86146
0.85904
0.85672
0.85449
0.85234
0.85027
0.84827
0.84634
0.84448
0.84268
0.84093
0.83924
0.83759
0.836
0.83445
0.83294
0.83148
0.83005
0.82866
0.8273
0.82598
0.82469
0.82343
0.8222
0.821
0.81983
0.81869
0.81757
0.81648
0.81542
0.81439
0.81338
0.8124
0.81144
0.81051
0.80961
0.80873
0.80788
0.80705
0.80625
0.80547
0.80471
0.80398
0.80327
0.80259
0.80193
0.8013
0.80069
0.80011
0.79955
0.79904
0.79855
0.7981
0.79769
0.79731
0.79697
0.79666
0.79638
0.79615
0.79595
0.79577
0.7956
0.79546
0.79536
0.79533
0.79539
0.79556
0.79586
0.79629
0.79508
0.79288
0.79034
0.78513
0.77925
0.77423
0.76995
0.7633
0.75786
0.75031
0.74102
0.73196
0.72636
0.71898
0.712
0.70885
0.70604
0.70461
0.70568
0.70606
0.70577
0.7049
0.70361
0.70209
0.70047
0.69885
0.69724
0.69565
0.69408
0.69253
0.691
0.68949
0.68801
0.68655
0.68512
0.68371
0.68232
0.68095
0.67959
0.67826
0.67694
0.67564
0.67435
0.67308
0.67182
0.67057
0.66933
0.66811
0.66689
0.66568
0.66448
0.66329
0.6621
0.66092
0.65974
0.65857
0.65741
0.65625
0.65509
0.65394
0.65279
0.65164
0.6505
0.64936
0.64822
0.64708
0.64594
0.6448
0.64367
0.64253
0.64139
0.64026
0.63912
0.63799
0.63685
0.63571
0.63457
0.63343
0.63229
0.63115
0.63
0.62885
0.6277
0.62655
0.62539
0.62423
0.62307
0.62191
0.62074
0.61958
0.61841
0.61725
0.61609
0.61493
0.61377
0.6126
0.61142
0.61024
0.60905
0.60786
0.60665
0.60543
0.60421
0.60299
0.60177
0.60054
0.59931
0.59807
0.59683
0.59558
0.59432
0.59306
0.59179
0.59052
0.58924
0.58796
0.58667
0.58537
0.58406
0.58275
0.58143
0.58011
0.57878
0.57744
0.57609
0.57474
0.57337
0.572
0.57062
0.56923
0.56784
0.56643
0.56502
0.56362
0.56221
0.5608
0.55938
0.55796
0.55652
0.55507
0.5536
0.55211
0.55061
0.54911
0.54759
0.54607
0.54454
0.543
0.54145
0.53989
0.53832
0.53674
0.53515
0.53354
0.53193
0.5303
0.52866
0.52701
0.52535
0.52367
0.52197
0.52026
0.51854
0.51683
0.51511
0.51339
0.51165
0.5099
0.50813
0.50634
0.50453
0.5027
0.50084
0.49897
0.49709
0.4952
0.49329
0.49136
0.48941
0.48744
0.48546
0.48349
0.48151
0.47955
0.4776
0.47566
0.47371
0.47176
0.46983
0.46796
0.46554
0.46177
0.45604
0.44815
0.43869
0.43038
0.4241
0.42061
0.42012
0.42191
0.4251
0.42902
0.43162
0.43256
0.43194
0.43029
0.42834
0.42624
0.42382
0.42106
0.41803
0.41491
0.41181
0.4087
0.40556
0.40239
0.39918
0.39607
0.39326
0.39083
0.38893
0.38715
0.38492
0.3821
0.37871
0.37489
0.37109
0.36732
0.36359
0.35988
0.35621
0.35258
0.34898
0.34543
0.34192
0.33845
0.33503
0.33165
0.32833
0.32505
0.32183
0.31866
0.31554
0.31248
0.30948
0.30653
0.30365
0.30083
0.29806
0.29537
0.29273
0.29016
0.28766
0.28522
0.28285
0.28055
0.27832
0.27615
0.27406
0.27203
0.27008
0.2682
0.26639
0.26464
0.26297
0.26137
0.25985
0.25839
0.257
0.25568
0.25443
0.25324
0.25212
0.25107
0.25008
0.24916
0.24829
0.24749
0.24675
0.24606
0.24542
0.24484
0.24431
0.24382
0.24338
0.24299
0.24263
0.24231
0.24203
0.24178
0.24157
0.24138
0.24122
0.24108
0.24096
0.24086
0.24078
0.24071
0.24065
0.24061
0.24057
0.24054
0.24052
0.2405
0.24049
0.24048
0.24048
0.24048
0.24048
0.24051
0.24057
0.24023
0.23797
0.23616
0.23824
0.24062
0.24497
0.86226
0.86971
0.87383
0.87757
0.87489
0.87103
0.86942
0.86782
0.86568
0.86322
0.86066
0.85813
0.85568
0.85329
0.85096
0.8487
0.8465
0.84437
0.8423
0.8403
0.83835
0.83647
0.83464
0.83286
0.83114
0.82946
0.82784
0.82625
0.82471
0.82321
0.82175
0.82032
0.81894
0.81758
0.81626
0.81497
0.81372
0.81249
0.81129
0.81012
0.80898
0.80786
0.80678
0.80572
0.80468
0.80368
0.8027
0.80175
0.80082
0.79993
0.79905
0.79821
0.79739
0.79659
0.79582
0.79508
0.79436
0.79366
0.793
0.79235
0.79173
0.79114
0.79057
0.79003
0.78953
0.78905
0.78862
0.78822
0.78786
0.78754
0.78727
0.78706
0.78689
0.78676
0.78664
0.7865
0.78635
0.78623
0.7862
0.78629
0.78475
0.78224
0.77941
0.77401
0.7681
0.76324
0.75516
0.74627
0.73815
0.73215
0.72441
0.71904
0.71275
0.70469
0.69707
0.69314
0.6899
0.68845
0.69007
0.69141
0.6924
0.69298
0.69312
0.69285
0.69221
0.6913
0.6902
0.68901
0.68775
0.68646
0.68514
0.6838
0.68245
0.6811
0.67975
0.67841
0.67707
0.67574
0.67442
0.67312
0.67182
0.67054
0.66927
0.668
0.66675
0.66552
0.66429
0.66307
0.66185
0.66065
0.65946
0.65827
0.65709
0.65591
0.65475
0.65358
0.65243
0.65128
0.65013
0.64898
0.64784
0.64671
0.64557
0.64444
0.64331
0.64218
0.64106
0.63993
0.63881
0.63769
0.63657
0.63545
0.63433
0.63321
0.63209
0.63097
0.62984
0.62872
0.6276
0.62647
0.62535
0.62422
0.62309
0.62196
0.62083
0.61969
0.61855
0.61741
0.61626
0.61512
0.61398
0.61285
0.61172
0.61058
0.60944
0.6083
0.60716
0.60601
0.60486
0.60369
0.60252
0.60133
0.60014
0.59894
0.59774
0.59654
0.59533
0.59412
0.59291
0.59169
0.59047
0.58924
0.58801
0.58677
0.58553
0.58428
0.58303
0.58177
0.5805
0.57923
0.57795
0.57667
0.57538
0.57408
0.57278
0.57147
0.57015
0.56883
0.56749
0.56616
0.56481
0.56345
0.56208
0.56071
0.55935
0.55798
0.55662
0.55525
0.55388
0.55249
0.55109
0.54967
0.54824
0.54678
0.54532
0.54384
0.54236
0.54087
0.53938
0.53788
0.53637
0.53485
0.53332
0.53178
0.53023
0.52867
0.5271
0.52552
0.52393
0.52233
0.52071
0.51908
0.51743
0.51578
0.51412
0.51246
0.5108
0.50914
0.50747
0.50578
0.50407
0.50233
0.50057
0.49879
0.49699
0.49518
0.49336
0.49152
0.48968
0.48781
0.48592
0.48401
0.4821
0.48019
0.47832
0.47645
0.47459
0.47272
0.47084
0.46896
0.46712
0.46532
0.46297
0.45928
0.45369
0.44613
0.43707
0.42913
0.42312
0.41977
0.41928
0.42106
0.4241
0.42801
0.43062
0.4316
0.43104
0.42941
0.42739
0.42533
0.42298
0.42029
0.41735
0.41432
0.41132
0.40832
0.40532
0.40229
0.39923
0.39628
0.39362
0.39134
0.3894
0.38764
0.38551
0.38288
0.37978
0.37632
0.37271
0.36912
0.36555
0.36202
0.35851
0.35503
0.35159
0.34818
0.3448
0.34147
0.33817
0.33491
0.3317
0.32853
0.3254
0.32232
0.31929
0.31631
0.31338
0.3105
0.30768
0.30491
0.30219
0.29953
0.29694
0.2944
0.29191
0.2895
0.28714
0.28484
0.28261
0.28044
0.27834
0.2763
0.27433
0.27242
0.27058
0.26881
0.2671
0.26546
0.26389
0.26238
0.26094
0.25956
0.25825
0.25701
0.25582
0.2547
0.25365
0.25265
0.25171
0.25084
0.25002
0.24925
0.24854
0.24788
0.24727
0.24671
0.24619
0.24572
0.24529
0.2449
0.24455
0.24423
0.24395
0.2437
0.24348
0.24328
0.24311
0.24296
0.24283
0.24272
0.24263
0.24255
0.24248
0.24243
0.24238
0.24235
0.24232
0.2423
0.24229
0.24228
0.24227
0.24227
0.2423
0.24236
0.24202
0.23978
0.23797
0.24004
0.24239
0.24672
0.83245
0.84158
0.84762
0.85386
0.85339
0.85136
0.85113
0.85066
0.84947
0.8478
0.84589
0.8439
0.84188
0.83984
0.83781
0.83578
0.83379
0.83182
0.8299
0.82801
0.82617
0.82437
0.82261
0.8209
0.81922
0.81759
0.816
0.81445
0.81294
0.81146
0.81002
0.80862
0.80725
0.80591
0.8046
0.80332
0.80208
0.80086
0.79967
0.7985
0.79737
0.79626
0.79518
0.79412
0.79309
0.79209
0.79112
0.79018
0.78926
0.78837
0.78751
0.78667
0.78586
0.78507
0.78431
0.78358
0.78288
0.7822
0.78155
0.78093
0.78033
0.77977
0.77923
0.77872
0.77824
0.77779
0.77736
0.77697
0.77663
0.77635
0.77614
0.77602
0.77597
0.77595
0.77591
0.77582
0.77569
0.77375
0.77078
0.76749
0.76167
0.7554
0.75024
0.74196
0.73302
0.72507
0.71532
0.70551
0.69882
0.69301
0.68649
0.68263
0.6782
0.67464
0.67301
0.67438
0.67566
0.67677
0.67767
0.67834
0.67877
0.67897
0.67893
0.67868
0.67824
0.67764
0.67691
0.67607
0.67515
0.67415
0.6731
0.672
0.67086
0.66969
0.66851
0.66731
0.6661
0.66489
0.66368
0.66247
0.66127
0.66006
0.65887
0.65767
0.65648
0.6553
0.65412
0.65295
0.65179
0.65063
0.64947
0.64833
0.64718
0.64604
0.64491
0.64378
0.64265
0.64152
0.6404
0.63929
0.63817
0.63706
0.63595
0.63484
0.63374
0.63263
0.63153
0.63043
0.62932
0.62822
0.62712
0.62602
0.62492
0.62382
0.62272
0.62162
0.62052
0.61942
0.61832
0.61721
0.6161
0.615
0.61388
0.61277
0.61166
0.61054
0.60943
0.60831
0.6072
0.60609
0.60498
0.60388
0.60277
0.60167
0.60055
0.59943
0.5983
0.59716
0.59603
0.59487
0.59371
0.59253
0.59136
0.59018
0.589
0.58782
0.58664
0.58545
0.58426
0.58307
0.58187
0.58066
0.57945
0.57824
0.57702
0.57579
0.57456
0.57333
0.57209
0.57084
0.56959
0.56834
0.56707
0.5658
0.56453
0.56324
0.56196
0.56066
0.55936
0.55804
0.55672
0.5554
0.55408
0.55275
0.55144
0.55012
0.54881
0.54747
0.54613
0.54476
0.54338
0.54198
0.54057
0.53915
0.53772
0.53628
0.53484
0.53339
0.53194
0.53048
0.529
0.52752
0.52603
0.52453
0.52303
0.52151
0.51998
0.51844
0.51689
0.51533
0.51376
0.51217
0.51058
0.50899
0.5074
0.50581
0.50422
0.50261
0.50099
0.49934
0.49767
0.49596
0.49425
0.49251
0.49077
0.48902
0.48726
0.48548
0.48369
0.48187
0.48005
0.47822
0.4764
0.4746
0.47282
0.47105
0.46927
0.46747
0.46567
0.46391
0.46159
0.45897
0.45524
0.44995
0.44301
0.43495
0.42739
0.42174
0.41866
0.41828
0.42005
0.42304
0.42681
0.4295
0.4305
0.42998
0.42837
0.42634
0.42418
0.42191
0.41932
0.4165
0.41358
0.4107
0.40783
0.40496
0.40208
0.39918
0.39625
0.39368
0.39154
0.3898
0.38827
0.38643
0.38395
0.38101
0.37774
0.37433
0.37094
0.36757
0.36422
0.36089
0.35759
0.35432
0.35107
0.34785
0.34466
0.34151
0.33839
0.3353
0.33226
0.32925
0.32628
0.32335
0.32046
0.31762
0.31482
0.31208
0.30937
0.30672
0.30412
0.30157
0.29907
0.29663
0.29424
0.2919
0.28963
0.28741
0.28524
0.28314
0.2811
0.27912
0.2772
0.27533
0.27354
0.2718
0.27012
0.26851
0.26696
0.26547
0.26405
0.26268
0.26138
0.26014
0.25895
0.25783
0.25676
0.25576
0.25481
0.25391
0.25307
0.25228
0.25154
0.25085
0.25021
0.24962
0.24907
0.24856
0.2481
0.24767
0.24728
0.24693
0.24661
0.24632
0.24605
0.24582
0.24561
0.24543
0.24527
0.24513
0.24501
0.2449
0.24481
0.24474
0.24467
0.24462
0.24458
0.24455
0.24453
0.24451
0.2445
0.2445
0.24452
0.24458
0.24425
0.24202
0.24023
0.24227
0.2446
0.24887
0.81081
0.82027
0.82682
0.83391
0.83443
0.83352
0.83444
0.83503
0.83478
0.83395
0.83276
0.83137
0.82986
0.82826
0.8266
0.8249
0.82317
0.82144
0.81972
0.81801
0.81632
0.81465
0.81301
0.8114
0.80981
0.80826
0.80674
0.80525
0.80379
0.80236
0.80096
0.79959
0.79826
0.79695
0.79567
0.79442
0.7932
0.792
0.79083
0.78968
0.78856
0.78747
0.78639
0.78535
0.78433
0.78334
0.78238
0.78144
0.78053
0.77965
0.7788
0.77797
0.77717
0.7764
0.77565
0.77493
0.77424
0.77359
0.77296
0.77237
0.77182
0.7713
0.77082
0.77037
0.76994
0.76951
0.7691
0.76872
0.7684
0.76816
0.76804
0.76804
0.76813
0.76645
0.76359
0.76015
0.75703
0.75188
0.74701
0.74138
0.73276
0.72361
0.71553
0.70578
0.69612
0.68969
0.68144
0.67344
0.66886
0.66481
0.66246
0.66309
0.66383
0.66468
0.66557
0.66641
0.66714
0.6677
0.66809
0.66833
0.66842
0.66839
0.66825
0.66802
0.66769
0.66728
0.66677
0.66617
0.66548
0.66471
0.66386
0.66294
0.66198
0.66098
0.65994
0.65887
0.65779
0.65669
0.65558
0.65446
0.65334
0.65221
0.65108
0.64995
0.64882
0.64769
0.64657
0.64544
0.64432
0.6432
0.64208
0.64097
0.63985
0.63874
0.63764
0.63653
0.63543
0.63433
0.63324
0.63214
0.63105
0.62996
0.62887
0.62778
0.62669
0.6256
0.62452
0.62343
0.62235
0.62126
0.62018
0.6191
0.61801
0.61693
0.61584
0.61475
0.61367
0.61258
0.61149
0.61039
0.6093
0.60821
0.60711
0.60601
0.60491
0.60382
0.60273
0.60165
0.60056
0.59947
0.59838
0.59729
0.5962
0.5951
0.59399
0.59288
0.59175
0.59062
0.58948
0.58833
0.58718
0.58602
0.58487
0.58371
0.58254
0.58138
0.58021
0.57903
0.57786
0.57668
0.57549
0.5743
0.5731
0.57191
0.5707
0.56949
0.56828
0.56706
0.56584
0.56461
0.56338
0.56214
0.56089
0.55964
0.55838
0.55711
0.55584
0.55456
0.55328
0.55199
0.5507
0.54941
0.54812
0.54684
0.54555
0.54426
0.54296
0.54164
0.5403
0.53894
0.53757
0.53619
0.5348
0.5334
0.532
0.5306
0.52918
0.52776
0.52633
0.52489
0.52345
0.52199
0.52053
0.51906
0.51758
0.51609
0.51459
0.51308
0.51156
0.51002
0.50848
0.50694
0.50539
0.50386
0.50231
0.50077
0.49921
0.49763
0.49601
0.49439
0.49273
0.49106
0.48938
0.48769
0.486
0.48429
0.48256
0.48082
0.47905
0.47728
0.47553
0.47378
0.47204
0.47032
0.4686
0.46687
0.46514
0.46341
0.46171
0.45948
0.45593
0.45178
0.44636
0.43987
0.43259
0.42633
0.42087
0.4179
0.41757
0.4193
0.42222
0.4259
0.42851
0.42973
0.42937
0.42797
0.4259
0.4237
0.4213
0.41881
0.41608
0.41325
0.41046
0.40768
0.4049
0.40212
0.39932
0.39651
0.39382
0.39169
0.39002
0.38868
0.38708
0.38496
0.38216
0.37902
0.37576
0.37251
0.36927
0.36606
0.36286
0.35968
0.35652
0.35339
0.35028
0.3472
0.34414
0.34111
0.33811
0.33515
0.33221
0.32931
0.32645
0.32362
0.32083
0.31808
0.31537
0.31271
0.31009
0.30751
0.30498
0.30249
0.30006
0.29767
0.29534
0.29306
0.29082
0.28865
0.28652
0.28446
0.28245
0.28049
0.27859
0.27675
0.27497
0.27325
0.27158
0.26997
0.26843
0.26694
0.26551
0.26414
0.26282
0.26157
0.26037
0.25923
0.25814
0.25711
0.25614
0.25521
0.25434
0.25352
0.25275
0.25202
0.25135
0.25071
0.25013
0.24958
0.24907
0.2486
0.24817
0.24778
0.24741
0.24708
0.24678
0.24651
0.24627
0.24605
0.24585
0.24568
0.24553
0.24539
0.24528
0.24518
0.2451
0.24503
0.24497
0.24493
0.24489
0.24487
0.24485
0.24484
0.24487
0.24492
0.24458
0.24236
0.24057
0.24261
0.24493
0.2492
0.79178
0.80118
0.80778
0.81508
0.81605
0.81583
0.81762
0.8191
0.81971
0.81966
0.81917
0.81841
0.81744
0.81632
0.81508
0.81374
0.81234
0.8109
0.80942
0.80793
0.80643
0.80494
0.80345
0.80197
0.8005
0.79906
0.79763
0.79622
0.79484
0.79348
0.79215
0.79084
0.78955
0.78829
0.78705
0.78584
0.78466
0.78349
0.78235
0.78123
0.78013
0.77906
0.77801
0.77698
0.77597
0.775
0.77405
0.77312
0.77223
0.77136
0.77052
0.76971
0.76892
0.76816
0.76743
0.76673
0.76606
0.76543
0.76485
0.76431
0.76382
0.76339
0.76301
0.76266
0.76231
0.76194
0.76155
0.76118
0.76089
0.76072
0.7589
0.75612
0.75298
0.74715
0.74062
0.7349
0.72983
0.72242
0.71614
0.70763
0.69764
0.68789
0.68145
0.67331
0.66551
0.66116
0.65737
0.65517
0.65571
0.65616
0.65657
0.65699
0.65745
0.65794
0.65841
0.65882
0.65912
0.65929
0.65935
0.65932
0.65921
0.65905
0.65885
0.65862
0.65835
0.65804
0.65765
0.6572
0.65666
0.65604
0.65535
0.65459
0.65377
0.65291
0.652
0.65106
0.65008
0.64909
0.64807
0.64704
0.646
0.64495
0.64389
0.64282
0.64175
0.64068
0.6396
0.63852
0.63744
0.63636
0.63528
0.6342
0.63313
0.63205
0.63097
0.6299
0.62882
0.62775
0.62667
0.6256
0.62453
0.62346
0.62239
0.62132
0.62025
0.61918
0.61812
0.61705
0.61598
0.61491
0.61384
0.61277
0.6117
0.61063
0.60956
0.60849
0.60741
0.60634
0.60526
0.60418
0.6031
0.60202
0.60095
0.59987
0.5988
0.59773
0.59667
0.5956
0.59454
0.59346
0.59238
0.5913
0.59021
0.58911
0.588
0.58689
0.58576
0.58463
0.5835
0.58237
0.58123
0.5801
0.57896
0.57781
0.57666
0.57551
0.57436
0.5732
0.57203
0.57086
0.56969
0.56851
0.56733
0.56615
0.56496
0.56376
0.56257
0.56136
0.56015
0.55894
0.55772
0.5565
0.55527
0.55403
0.55279
0.55154
0.55028
0.54902
0.54776
0.54651
0.54525
0.544
0.54274
0.54148
0.54021
0.53893
0.53762
0.53631
0.53497
0.53362
0.53227
0.53091
0.52955
0.52818
0.52681
0.52543
0.52404
0.52264
0.52123
0.51982
0.5184
0.51697
0.51553
0.51408
0.51262
0.51116
0.50968
0.5082
0.5067
0.50519
0.5037
0.5022
0.50071
0.49921
0.49771
0.49618
0.49464
0.49306
0.49146
0.48986
0.48823
0.4866
0.48496
0.48331
0.48165
0.47997
0.47828
0.47656
0.47484
0.47314
0.47146
0.46979
0.46814
0.46646
0.46477
0.46307
0.46141
0.45978
0.45763
0.45421
0.449
0.44307
0.43606
0.42964
0.42423
0.42016
0.41727
0.41694
0.41863
0.42147
0.42505
0.42761
0.42882
0.42869
0.42746
0.42555
0.42339
0.42099
0.4184
0.41578
0.41306
0.41036
0.40766
0.40498
0.40228
0.39958
0.39686
0.39427
0.39199
0.39029
0.38893
0.3876
0.38575
0.38333
0.38032
0.37718
0.37405
0.37094
0.36784
0.36475
0.36169
0.35864
0.35561
0.35259
0.3496
0.34663
0.34369
0.34077
0.33788
0.33501
0.33218
0.32937
0.3266
0.32385
0.32115
0.31848
0.31585
0.31325
0.3107
0.30818
0.30571
0.30328
0.3009
0.29856
0.29627
0.29403
0.29184
0.28969
0.2876
0.28556
0.28357
0.28164
0.27976
0.27793
0.27616
0.27444
0.27278
0.27117
0.26962
0.26813
0.26669
0.26531
0.26398
0.26271
0.26149
0.26032
0.25921
0.25816
0.25715
0.25619
0.25529
0.25443
0.25362
0.25286
0.25214
0.25147
0.25084
0.25025
0.2497
0.24919
0.24872
0.24828
0.24787
0.2475
0.24716
0.24684
0.24656
0.2463
0.24607
0.24587
0.24568
0.24552
0.24538
0.24526
0.24515
0.24506
0.24499
0.24493
0.24488
0.24484
0.24481
0.2448
0.24482
0.24487
0.24452
0.2423
0.24051
0.24255
0.24488
0.24915
0.77368
0.78287
0.78934
0.7966
0.79774
0.79794
0.80034
0.80252
0.80385
0.80449
0.80465
0.80448
0.80406
0.80343
0.80263
0.80169
0.80064
0.79951
0.79832
0.79708
0.79581
0.79452
0.79321
0.7919
0.79058
0.78927
0.78796
0.78666
0.78538
0.78411
0.78286
0.78162
0.7804
0.7792
0.77803
0.77687
0.77573
0.77461
0.77351
0.77243
0.77137
0.77032
0.76929
0.76829
0.76731
0.76635
0.76541
0.76451
0.76363
0.76278
0.76196
0.76116
0.76039
0.75965
0.75895
0.75828
0.75766
0.75708
0.75656
0.75611
0.75573
0.75543
0.75519
0.75499
0.75476
0.75447
0.75413
0.75201
0.74887
0.7454
0.73946
0.73306
0.72772
0.71922
0.70993
0.70139
0.69486
0.6867
0.68081
0.67396
0.66563
0.65782
0.65352
0.64982
0.64774
0.64837
0.64892
0.64939
0.64977
0.65007
0.65033
0.65056
0.65076
0.65095
0.65109
0.65117
0.65117
0.65108
0.65093
0.65073
0.65051
0.65027
0.65003
0.64978
0.64952
0.64924
0.64892
0.64854
0.6481
0.64759
0.64701
0.64637
0.64568
0.64493
0.64413
0.6433
0.64243
0.64153
0.6406
0.63966
0.63869
0.63771
0.63672
0.63572
0.63471
0.63369
0.63266
0.63163
0.6306
0.62956
0.62852
0.62748
0.62644
0.6254
0.62435
0.62331
0.62226
0.62121
0.62017
0.61912
0.61807
0.61703
0.61598
0.61493
0.61388
0.61283
0.61178
0.61073
0.60968
0.60863
0.60758
0.60653
0.60547
0.60442
0.60336
0.6023
0.60124
0.60018
0.59912
0.59806
0.597
0.59595
0.59491
0.59386
0.59281
0.59176
0.59071
0.58966
0.5886
0.58753
0.58646
0.58537
0.58428
0.58319
0.58208
0.58097
0.57986
0.57875
0.57764
0.57652
0.5754
0.57428
0.57315
0.57202
0.57089
0.56975
0.56861
0.56747
0.56632
0.56516
0.56401
0.56284
0.56168
0.56051
0.55933
0.55816
0.55697
0.55578
0.55459
0.55339
0.55219
0.55098
0.54977
0.54855
0.54732
0.54609
0.54486
0.54364
0.54241
0.54119
0.53996
0.53874
0.53749
0.53624
0.53497
0.53369
0.53239
0.53109
0.52977
0.52844
0.52712
0.52579
0.52445
0.52311
0.52176
0.5204
0.51903
0.51766
0.51628
0.51489
0.51349
0.51209
0.51067
0.50925
0.50782
0.50638
0.50492
0.50347
0.50201
0.50055
0.4991
0.49765
0.4962
0.49473
0.49324
0.49173
0.49019
0.48863
0.48706
0.48548
0.4839
0.48231
0.48071
0.47909
0.47746
0.47581
0.47415
0.47248
0.47082
0.46919
0.4676
0.46601
0.46439
0.46276
0.46112
0.4595
0.45795
0.45588
0.45257
0.44753
0.44071
0.43333
0.42679
0.42179
0.41839
0.41668
0.41635
0.41799
0.42076
0.42424
0.42674
0.42793
0.42783
0.42678
0.42502
0.423
0.42067
0.41812
0.41549
0.41288
0.41029
0.4077
0.40511
0.40251
0.39989
0.39727
0.39478
0.3926
0.39079
0.38943
0.38817
0.38651
0.38433
0.38166
0.37864
0.37563
0.37263
0.36964
0.36667
0.36371
0.36076
0.35783
0.35491
0.35202
0.34914
0.34628
0.34344
0.34062
0.33783
0.33506
0.33231
0.3296
0.32691
0.32425
0.32162
0.31903
0.31647
0.31394
0.31145
0.309
0.30658
0.30421
0.30187
0.29958
0.29733
0.29513
0.29297
0.29086
0.2888
0.28678
0.28482
0.2829
0.28103
0.27922
0.27745
0.27574
0.27408
0.27247
0.27092
0.26942
0.26797
0.26657
0.26523
0.26394
0.2627
0.26151
0.26038
0.25929
0.25825
0.25726
0.25632
0.25543
0.25458
0.25378
0.25302
0.25231
0.25163
0.251
0.25041
0.24985
0.24933
0.24885
0.2484
0.24798
0.2476
0.24724
0.24692
0.24662
0.24635
0.24611
0.2459
0.2457
0.24553
0.24538
0.24525
0.24514
0.24505
0.24497
0.2449
0.24485
0.24481
0.24479
0.2448
0.24484
0.2445
0.24227
0.24048
0.24253
0.24485
0.24912
0.75609
0.76505
0.77135
0.77846
0.77965
0.78009
0.78292
0.78561
0.7875
0.78872
0.78945
0.78982
0.78991
0.78976
0.78939
0.78885
0.78817
0.78738
0.78649
0.78553
0.78451
0.78345
0.78235
0.78122
0.78007
0.77891
0.77775
0.77658
0.77541
0.77425
0.77309
0.77194
0.77081
0.76969
0.76858
0.76749
0.76641
0.76535
0.7643
0.76327
0.76225
0.76125
0.76026
0.75928
0.75833
0.75739
0.75649
0.7556
0.75475
0.75393
0.75313
0.75236
0.75162
0.75092
0.75026
0.74966
0.74911
0.74863
0.74822
0.74789
0.74767
0.74754
0.7475
0.74571
0.74276
0.73924
0.73604
0.73084
0.72589
0.72021
0.71162
0.70252
0.69443
0.68467
0.67486
0.668
0.66196
0.65532
0.65119
0.64653
0.64264
0.64049
0.64111
0.64169
0.6422
0.64264
0.643
0.64329
0.64351
0.64367
0.64377
0.64383