/*--------------------------------*- C++ -*----------------------------------*\
| =========                 |                                                 |
| \\      /  F ield         | OpenFOAM: The Open Source CFD Toolbox           |
|  \\    /   O peration     | Version:  5.x                                   |
|   \\  /    A nd           | Web:      www.OpenFOAM.org                      |
|    \\/     M anipulation  |                                                 |
\*---------------------------------------------------------------------------*/
FoamFile
{
    version     2.0;
    format      ascii;
    class       volScalarField;
    location    "175";
    object      gamma;
}
// * * * * * * * * * * * * * * * * * * * * * * * * * * * * * * * * * * * * * //

dimensions      [0 0 0 0 0 0 0];

internalField   nonuniform List<scalar> 
86400
(
3.77e-08
5.46e-08
1.022e-07
2.717e-07
7.855e-07
1.581e-06
1.882e-06
2.335e-06
3.078e-06
3.158e-06
3.099e-06
1.983e-06
1.082e-06
4.127e-07
6.273e-07
1.8e-06
1.465e-05
3.91e-05
9.038e-05
6.008e-05
5.454e-05
6.444e-05
0.000133
0.0001436
0.0001883
0.0003885
0.0005964
0.001048
0.001454
0.001857
0.001724
0.00161
0.001435
0.00126
0.001199
0.001427
0.001416
0.001373
0.001116
0.001117
0.00109
0.001228
0.001043
0.0007478
0.0006725
0.0007632
0.001086
0.00135
0.001543
0.001393
0.001413
0.001515
0.001624
0.001687
0.001737
0.002018
0.002476
0.002853
0.003065
0.003059
0.002643
0.002645
0.002415
0.002422
0.002854
0.00358
0.004229
0.00442
0.003406
0.002943
0.003388
0.004463
0.006302
0.005796
0.004901
0.003665
0.002505
0.002136
0.002349
0.00258
0.003358
0.003692
0.003301
0.002826
0.00261
0.002285
0.002436
0.002514
0.002856
0.003165
0.002928
0.00326
0.003698
0.005004
0.005703
0.006339
0.005702
0.005881
0.006144
0.005969
0.005448
0.005595
0.004947
0.00423
0.002672
0.002505
0.002758
0.004333
0.004582
0.004411
0.003194
0.002736
0.002272
0.001712
0.00109
0.0007683
0.0006513
0.0006148
0.0005545
0.0005433
0.0006257
0.0007252
0.0009291
0.001049
0.0009706
0.0008645
0.0007516
0.0006769
0.000598
0.0004933
0.0003249
0.0002458
0.0002046
0.0001773
0.0001604
0.0001701
0.0002125
0.0002819
0.0001323
2.675e-05
5.995e-06
4.955e-06
7.209e-06
8.918e-06
4.511e-06
7.653e-07
9.288e-08
1.652e-08
8.671e-09
5.474e-09
1.41e-08
2.525e-08
1.194e-07
2.342e-07
1.271e-06
4.345e-06
1.294e-05
2.191e-05
0.02584
0.9971
5.42e-08
6.754e-08
1.162e-07
2.381e-07
5.703e-07
9.801e-07
1.066e-06
1.216e-06
1.343e-06
8.682e-07
7.635e-07
6.597e-07
6.31e-07
6.696e-07
1.326e-06
3.205e-06
1.287e-05
3.793e-05
9.694e-05
0.0001066
0.0001271
0.0002055
0.000411
0.0005575
0.0007519
0.0009692
0.000891
0.0008985
0.0009017
0.0008784
0.0007605
0.0008199
0.0009032
0.001013
0.001171
0.00152
0.001629
0.001838
0.001822
0.001937
0.001834
0.001874
0.00164
0.001307
0.001188
0.001385
0.001786
0.002296
0.002871
0.003056
0.003468
0.004126
0.00484
0.005439
0.005593
0.004854
0.003963
0.003333
0.002912
0.002816
0.002748
0.002888
0.002573
0.002609
0.003149
0.00474
0.00593
0.006529
0.00545
0.005162
0.006083
0.006535
0.005816
0.004006
0.002786
0.002388
0.002907
0.003831
0.004563
0.004723
0.005404
0.005835
0.006347
0.006373
0.00637
0.005884
0.006392
0.006837
0.008616
0.01094
0.01201
0.0137
0.01409
0.01342
0.01197
0.01098
0.009583
0.008156
0.006234
0.00538
0.00517
0.006548
0.009009
0.008149
0.004009
0.002825
0.002671
0.003336
0.004495
0.004919
0.003411
0.003119
0.003312
0.003482
0.003053
0.002313
0.001761
0.00151
0.001329
0.001329
0.001384
0.001292
0.001253
0.001186
0.001108
0.00125
0.001352
0.001452
0.001324
0.001032
0.0006375
0.000488
0.0004132
0.0004765
0.0005579
0.000533
0.000501
0.0004417
0.0002027
5.699e-05
2.855e-05
1.847e-05
1.253e-05
7.088e-06
2.34e-06
3.788e-07
9.69e-08
5.463e-08
8.89e-08
1.206e-07
2.33e-07
4.134e-07
1.894e-06
5.886e-06
3.991e-05
0.0003383
0.003276
0.0837
0.9479
0.9997
1.071e-07
1.246e-07
1.728e-07
2.532e-07
4.942e-07
6.987e-07
6.831e-07
7.376e-07
6.863e-07
4.596e-07
4.65e-07
6.397e-07
9.01e-07
1.529e-06
3.227e-06
1.038e-05
3.639e-05
0.0001318
0.000264
0.0003392
0.0002814
0.0004303
0.0006637
0.0009302
0.001429
0.002232
0.002316
0.002284
0.002164
0.00171
0.001489
0.001863
0.002064
0.002054
0.001837
0.001807
0.001655
0.001858
0.001841
0.001675
0.001234
0.001106
0.0009587
0.001005
0.001303
0.002004
0.002903
0.004239
0.006099
0.005715
0.00446
0.00337
0.00268
0.002471
0.002868
0.002606
0.002294
0.00199
0.001847
0.001871
0.002097
0.00243
0.002424
0.002996
0.003311
0.003843
0.004261
0.004523
0.004035
0.004081
0.004531
0.003761
0.002827
0.00238
0.00239
0.003807
0.006954
0.01008
0.0109
0.01106
0.01168
0.01265
0.01432
0.01539
0.01717
0.01675
0.01683
0.01638
0.01311
0.009361
0.005913
0.003923
0.003578
0.004603
0.005567
0.006605
0.007325
0.005475
0.003869
0.0034
0.003362
0.004194
0.005945
0.004812
0.002462
0.002057
0.002598
0.004063
0.007004
0.007235
0.005479
0.006212
0.007571
0.008345
0.006803
0.004863
0.003112
0.002318
0.001861
0.001843
0.00167
0.001614
0.001452
0.001234
0.001057
0.001148
0.001178
0.001262
0.001177
0.0009561
0.0006615
0.0005389
0.0004647
0.0005995
0.0007493
0.0006246
0.0004867
0.0003388
0.0001674
5.848e-05
3.325e-05
1.721e-05
9.665e-06
5.328e-06
2.466e-06
7.477e-07
3.005e-07
2.679e-07
5.272e-07
1.276e-06
4.082e-06
9.032e-06
3.093e-05
0.0001194
0.001032
0.01789
0.4167
0.9706
0.9995
1
2.426e-07
2.484e-07
2.696e-07
2.878e-07
4.076e-07
4.15e-07
3.339e-07
3.291e-07
3.264e-07
2.978e-07
4.388e-07
4.383e-07
4.448e-07
9.607e-07
3.032e-06
8.362e-06
2.937e-05
6.626e-05
4.551e-05
3.646e-05
2.58e-05
2.831e-05
5.574e-05
0.0001082
0.0002275
0.0005363
0.0008747
0.001115
0.001332
0.001279
0.001217
0.001906
0.002637
0.003071
0.002659
0.002331
0.001973
0.002308
0.002385
0.002051
0.001442
0.001385
0.001566
0.002356
0.002912
0.003248
0.002707
0.002604
0.003009
0.002736
0.001819
0.00133
0.001223
0.001165
0.001443
0.001207
0.0008684
0.000721
0.000864
0.0012
0.001676
0.002275
0.002656
0.003338
0.003429
0.003452
0.003171
0.002937
0.002527
0.003546
0.005274
0.004673
0.004126
0.004189
0.003739
0.006565
0.01123
0.01322
0.0108
0.01138
0.009453
0.007886
0.006784
0.005379
0.004605
0.00468
0.004594
0.004481
0.003944
0.003633
0.003194
0.002658
0.002963
0.003914
0.004662
0.005297
0.006291
0.004217
0.002836
0.002417
0.002531
0.003421
0.005585
0.005022
0.002566
0.001494
0.001336
0.001973
0.003075
0.00338
0.002677
0.002713
0.002522
0.003767
0.004296
0.00481
0.004154
0.004317
0.003494
0.003642
0.002981
0.002789
0.002163
0.001708
0.00144
0.001599
0.001848
0.00212
0.002164
0.001877
0.001374
0.001197
0.001152
0.001319
0.001265
0.0007332
0.0003397
0.0001089
5.7e-05
2.434e-05
1.673e-05
9.31e-06
5.789e-06
3.576e-06
2.587e-06
1.52e-06
1.317e-06
3.27e-06
1.445e-05
4.1e-05
0.0001145
0.0002983
0.0009736
0.006143
0.07835
0.8414
0.9906
0.9999
1
1
7.106e-07
5.728e-07
4.92e-07
4.279e-07
4.001e-07
3.299e-07
2.077e-07
1.92e-07
2.334e-07
2.682e-07
5.07e-07
3.381e-07
1.226e-07
2.079e-07
1.055e-06
5.363e-06
5.176e-05
5.362e-05
1.403e-05
5.408e-06
4.81e-06
5.685e-06
1.288e-05
1.679e-05
3.683e-05
0.0001461
0.0006761
0.00225
0.004825
0.003387
0.001745
0.001531
0.00129
0.001129
0.001023
0.0008814
0.0006567
0.0009736
0.001663
0.00226
0.00145
0.0007392
0.0003431
0.0002947
0.0002508
0.0002463
0.0002391
0.0003694
0.0008005
0.00133
0.001109
0.0006919
0.0008168
0.001023
0.001412
0.0011
0.0006618
0.000597
0.0008417
0.001544
0.002793
0.004685
0.006736
0.008484
0.006885
0.004216
0.002934
0.002096
0.001431
0.001562
0.002274
0.002052
0.002775
0.00448
0.0049
0.005217
0.005414
0.003404
0.001792
0.001417
0.0006838
0.0003062
0.000224
0.0002424
0.0003995
0.0009836
0.001732
0.001779
0.001581
0.001497
0.001168
0.001141
0.001609
0.002334
0.003687
0.004237
0.004794
0.003175
0.002419
0.001654
0.0008641
0.0005848
0.0008822
0.00125
0.00157
0.001982
0.002144
0.002756
0.003342
0.00312
0.002007
0.001643
0.001253
0.002241
0.002287
0.002363
0.001823
0.001788
0.001194
0.001436
0.001294
0.001298
0.001095
0.0008507
0.0007135
0.0007216
0.0007521
0.0009281
0.001144
0.001251
0.00123
0.00118
0.001084
0.0009303
0.0006353
0.0002646
8.921e-05
3.132e-05
1.674e-05
7.611e-06
5.938e-06
4.22e-06
4.369e-06
5.643e-06
8.153e-06
9.458e-06
1.158e-05
2.184e-05
8.039e-05
0.0003162
0.001367
0.006879
0.04634
0.5481
0.955
0.9983
1
1
1
1
1.32e-06
9.227e-07
7.392e-07
6.136e-07
4.117e-07
2.73e-07
1.882e-07
1.812e-07
2.947e-07
5.234e-07
1.393e-06
5.705e-07
1.066e-07
7.513e-08
7.005e-07
2.847e-06
2.702e-05
1.859e-05
4.802e-06
1.892e-06
4.197e-06
6.649e-06
1.55e-05
8.108e-06
7.932e-06
1.6e-05
5.408e-05
0.0003014
0.001236
0.001048
0.0004777
0.0003104
0.000238
0.000227
0.0003365
0.0003675
0.0002029
0.0002001
0.0002782
0.0002134
6.797e-05
2.498e-05
5.554e-06
2.294e-06
1.437e-06
7.28e-07
2.99e-07
4.731e-07
1.752e-06
6.393e-06
1.125e-05
1.815e-05
4.322e-05
0.0001643
0.0003806
0.0003056
0.0001259
9.193e-05
0.0001424
0.0004487
0.001217
0.002377
0.002806
0.003492
0.00309
0.001982
0.002265
0.001947
0.00129
0.001237
0.001944
0.001763
0.002542
0.002918
0.001424
0.0004504
0.0001183
4.866e-05
3.969e-05
6.723e-05
7.336e-05
5.426e-05
3.844e-05
5.257e-05
0.0001322
0.0005404
0.001588
0.002007
0.00223
0.002353
0.002342
0.00171
0.001639
0.001496
0.001362
0.001434
0.001389
0.001244
0.001573
0.001534
0.0009513
0.0005646
0.0005743
0.0007669
0.001326
0.001843
0.001332
0.001524
0.001659
0.001501
0.0006713
0.0003637
0.0001929
0.0003807
0.0005733
0.000893
0.0008755
0.0008048
0.0005833
0.0006902
0.0005846
0.0005449
0.0004563
0.0003578
0.0003131
0.0003139
0.0003141
0.0003935
0.0004914
0.000531
0.0004622
0.0004006
0.0003421
0.0002552
0.0002025
0.0001089
6.744e-05
3.642e-05
2.42e-05
1.148e-05
1.004e-05
9.378e-06
1.092e-05
1.619e-05
2.996e-05
4.955e-05
0.0001097
0.0003541
0.001592
0.007818
0.04522
0.4154
0.9294
0.9949
0.9999
1
1
1
1
1
1.837e-06
1.034e-06
6.99e-07
4.71e-07
3.721e-07
3.129e-07
3.175e-07
3.886e-07
9.051e-07
1.724e-06
3.709e-06
1.325e-06
1.02e-07
4.624e-08
2.806e-07
1.766e-06
3.685e-05
8.774e-05
3.434e-05
1.989e-05
6.791e-05
8.142e-05
0.0001262
3.377e-05
1.463e-05
1.783e-05
4.683e-05
0.0001834
0.0008601
0.0008519
0.0004497
0.0001742
0.0001211
0.0001408
0.0002528
0.0002771
0.0001028
6.411e-05
9.2e-05
6.11e-05
1.045e-05
1.499e-06
9.224e-08
1.308e-08
5.578e-09
1.137e-09
3.881e-10
9.415e-10
9.565e-09
8.8e-08
3.664e-07
4.545e-07
5.658e-07
1.228e-06
1.452e-06
1.973e-06
2.902e-06
8.089e-06
3.866e-05
0.0002261
0.0006379
0.001435
0.002051
0.003615
0.003816
0.001995
0.002218
0.001799
0.001268
0.0008974
0.001133
0.0006466
0.0007105
0.0006609
0.000335
9.95e-05
2.244e-05
9.421e-06
6.428e-06
1.177e-05
1.981e-05
2.698e-05
3.078e-05
4.989e-05
0.0001014
0.0001753
0.0003026
0.0003105
0.0005382
0.001376
0.001877
0.001438
0.0008504
0.0005089
0.0003232
0.0002161
0.0001104
6.387e-05
5.868e-05
5.42e-05
6.815e-05
6.89e-05
0.0001228
0.0003745
0.001423
0.002257
0.00182
0.001808
0.001677
0.001084
0.0004828
0.0001773
8.314e-05
0.0001601
0.0003702
0.0005603
0.0005246
0.0003767
0.0002528
0.0002847
0.0002799
0.0002969
0.0002916
0.0002478
0.0001819
0.0001259
8.737e-05
8.4e-05
9.969e-05
0.0001309
0.0001299
0.0001179
9.122e-05
5.367e-05
4.37e-05
4.814e-05
5.637e-05
5.906e-05
6.746e-05
4.36e-05
4.198e-05
5.754e-05
0.000107
0.0002574
0.0009313
0.003226
0.01035
0.03337
0.1296
0.7214
0.9518
0.9958
0.9999
1
1
1
1
1
1
1
3.475e-06
1.327e-06
6.776e-07
4.205e-07
3.951e-07
4.143e-07
7.411e-07
1.323e-06
2.102e-06
1.602e-06
2.325e-06
6.882e-07
5.478e-08
4.738e-08
3.602e-07
3.079e-06
7.825e-05
0.0004068
0.0004373
0.0007381
0.0017
0.001644
0.001713
0.0004781
0.0001552
5.264e-05
3.388e-05
5.648e-05
0.0001916
0.0002769
0.0002388
0.0001743
0.0001365
0.0002042
0.0004264
0.0005419
0.0002036
0.0001287
0.0001469
3.452e-05
2.668e-06
1.168e-07
4.232e-09
4.134e-10
3.449e-10
7.553e-11
2.587e-11
4.039e-11
1.149e-10
8.464e-10
4.692e-09
6.466e-09
1.159e-08
3.278e-08
3.488e-08
4.202e-08
1.178e-07
8.421e-07
9.378e-06
0.0001163
0.0004616
0.001221
0.002078
0.005051
0.005397
0.002847
0.00224
0.001406
0.0006758
0.0003083
0.0001725
7.087e-05
5.21e-05
6.545e-05
6.349e-05
3.516e-05
7.788e-06
3.308e-06
1.789e-06
2.967e-06
6.018e-06
1.623e-05
3.667e-05
7.356e-05
0.0001063
9.887e-05
0.0001248
0.0001349
0.0002313
0.0007408
0.001433
0.001246
0.0004713
0.0003067
0.0002109
0.0001567
0.0001031
6.005e-05
2.886e-05
2.131e-05
3.985e-05
6.807e-05
0.0001251
0.0001691
0.000238
0.0002253
0.0002365
0.0003707
0.0005185
0.0003852
0.0001344
2.336e-05
1.302e-05
3.576e-05
0.0001464
0.0002814
0.0003339
0.0001494
7.972e-05
7.964e-05
7.911e-05
7.863e-05
8.01e-05
7.773e-05
6.417e-05
4.922e-05
3.528e-05
3.301e-05
3.962e-05
5.859e-05
7.264e-05
7.432e-05
5.323e-05
2.966e-05
2.769e-05
4.958e-05
0.0001301
0.0002703
0.0004676
0.0005824
0.001174
0.003126
0.009507
0.02235
0.06929
0.4532
0.8424
0.9665
0.9942
0.9994
0.9999
1
1
1
1
1
1
1
1
1
6.928e-06
1.562e-06
5.777e-07
3.104e-07
3.412e-07
5.293e-07
2.053e-06
2.402e-06
1.701e-06
7.732e-07
4.673e-07
1.931e-07
6.621e-08
1.511e-07
1.421e-06
9.324e-06
4.395e-05
0.0001214
0.0001306
0.0001705
0.0005735
0.00178
0.004152
0.00398
0.002832
0.0007246
0.0001823
8.925e-05
0.0001286
0.0002121
0.0003573
0.0003222
0.0002045
0.0002617
0.0003869
0.0004525
0.0002079
0.0001552
0.0002374
1.844e-05
4.743e-07
7.296e-09
1.817e-10
3.224e-11
1.751e-10
1.21e-10
6.262e-11
5.967e-11
5.991e-11
9.482e-11
5.659e-10
1.322e-09
4.529e-09
7.539e-09
4.317e-09
1.998e-09
4.695e-09
5.979e-08
1.581e-06
5.205e-05
0.0004082
0.001269
0.001901
0.003482
0.00257
0.0008962
0.0003717
0.0001677
3.972e-05
1.489e-05
6.142e-06
2.543e-06
1.677e-06
3.127e-06
3.604e-06
8.439e-06
6.986e-06
5.677e-06
3.562e-06
7.049e-06
3.678e-05
0.0004378
0.004476
0.01462
0.01736
0.008542
0.005732
0.007223
0.009795
0.01552
0.01771
0.01491
0.009823
0.009644
0.007019
0.01076
0.01085
0.003767
0.0007477
9.464e-05
5.92e-05
5.058e-05
0.0001068
0.0001233
8.837e-05
5.181e-05
7.426e-05
8.422e-05
0.0001023
6.035e-05
1.501e-05
3.158e-06
3.917e-06
5.764e-06
1.842e-05
3.3e-05
4.519e-05
2.345e-05
1.595e-05
1.148e-05
9.845e-06
9.69e-06
1.094e-05
1.313e-05
1.386e-05
1.277e-05
9.945e-06
9.64e-06
1.37e-05
3.215e-05
8.952e-05
0.0002104
0.0002804
0.0002662
0.000373
0.000933
0.003399
0.009642
0.01724
0.03091
0.1053
0.5169
0.8702
0.9671
0.9919
0.9986
0.9998
1
1
1
1
1
1
1
1
1
1
1
1
1
5.902e-06
1.28e-06
5.933e-07
4.087e-07
6.382e-07
1.241e-06
2.767e-06
1.311e-06
5.547e-07
2.842e-07
1.367e-07
1.609e-07
2.1e-07
9.506e-07
9.948e-06
3.406e-05
3.309e-05
1.45e-05
5.247e-06
3.247e-06
1.194e-05
8.744e-05
0.0007565
0.003263
0.005051
0.001371
0.0002345
9.132e-05
8.926e-05
0.0002592
0.0006941
0.0006408
0.0002838
0.000217
0.0001567
0.000226
0.0003088
0.000458
0.0005205
1.996e-05
2.726e-07
2.561e-09
9.816e-11
4.567e-11
7.103e-10
1.554e-09
7.31e-10
2.147e-10
2.774e-11
1.038e-11
7.436e-11
5.161e-10
6.023e-09
1.67e-08
3.628e-09
4.537e-10
5.994e-10
8.667e-09
7.608e-07
6.031e-05
0.0004405
0.0009358
0.0004553
0.0003247
0.0001076
3.097e-05
1.27e-05
6.647e-06
2.369e-06
1.99e-06
1.637e-06
1.579e-06
2.607e-06
1.614e-05
3.053e-05
0.0001022
0.0002472
0.0008912
0.001763
0.009097
0.08027
0.5804
0.9087
0.9774
0.9904
0.9945
0.9964
0.9965
0.9948
0.9943
0.9939
0.9945
0.9956
0.9957
0.9945
0.9953
0.9944
0.9876
0.9461
0.5853
0.03608
0.009974
0.006931
0.002581
0.000438
9.064e-05
8.304e-05
6.687e-05
5.778e-05
2.443e-05
3.831e-06
1.161e-06
2.576e-06
4.097e-06
1.794e-05
4.322e-05
9.457e-05
7.884e-05
7.29e-05
4.139e-05
3.284e-05
3.4e-05
4.428e-05
7.088e-05
0.0001116
0.0001521
0.0001597
0.0001675
0.0002635
0.0006312
0.002261
0.006871
0.01149
0.01318
0.0253
0.08397
0.5187
0.859
0.9564
0.9871
0.9967
0.9991
0.9998
1
1
1
1
1
1
1
1
1
1
1
1
1
1
1
1
1
2.321e-06
5.903e-07
4.307e-07
6.104e-07
1.735e-06
3.733e-06
2.437e-06
5.751e-07
1.616e-07
1.064e-07
8.682e-08
2.323e-07
9.974e-07
8.978e-06
3.76e-05
7.283e-05
1.573e-05
9.172e-07
1.114e-07
5.826e-08
3.742e-07
5.402e-06
0.0001867
0.001864
0.005181
0.002026
0.000781
0.0003367
0.0002544
0.0005555
0.000885
0.000388
7.553e-05
1.96e-05
1.251e-05
1.952e-05
6.735e-05
0.0002514
0.0004062
3.501e-05
7.814e-07
9.309e-09
5.658e-10
4.215e-10
3.989e-09
8.69e-09
5.202e-09
1.029e-09
7.932e-11
2.129e-11
1.308e-10
1.727e-09
5.705e-08
2.294e-07
4.349e-08
2.65e-09
2.104e-09
2.559e-08
2.11e-06
0.0001722
0.0006532
0.0004164
8.273e-05
3.592e-05
1.557e-05
5.827e-06
2.391e-06
1.214e-06
7.683e-07
1.371e-06
4.725e-06
2.333e-05
0.0001303
0.001021
0.00294
0.01479
0.09768
0.762
0.9225
0.9838
0.9955
0.9988
0.9997
1
1
1
1
1
1
1
1
1
1
1
1
1
1
1
1
0.9996
0.9961
0.9873
0.977
0.9358
0.6262
0.03143
0.008671
0.002756
0.0009978
0.0001579
4.114e-05
1.74e-05
5.781e-05
0.0001093
0.0002756
0.0005063
0.001453
0.001472
0.001567
0.0007603
0.0004544
0.0003444
0.0003993
0.0007889
0.002283
0.005686
0.009714
0.01249
0.02497
0.07795
0.5137
0.8665
0.9661
0.9876
0.9955
0.998
0.9993
0.9998
0.9999
1
1
1
1
1
1
1
1
1
1
1
1
1
1
1
1
1
1
1
1
1
5.665e-07
2.373e-07
3.063e-07
6.279e-07
1.356e-06
2.9e-06
1.06e-06
3.415e-07
1.487e-07
3.798e-07
4.297e-07
2.561e-06
1.534e-05
5.782e-05
0.0001031
0.0001201
1.106e-05
3.677e-07
2.702e-08
9.199e-09
7.529e-08
4.277e-06
0.0003362
0.002843
0.005722
0.001835
0.0009313
0.0005288
0.000567
0.001103
0.001149
0.0003155
3.133e-05
6.098e-06
2.426e-06
3.964e-06
1.923e-05
6.939e-05
9.221e-05
1.313e-05
4.934e-07
2.201e-08
3.149e-09
2.98e-09
8.753e-09
9.386e-09
4.762e-09
5.607e-10
3.043e-11
9.4e-12
5.881e-11
2.511e-09
3.291e-07
5.001e-06
1.726e-06
8.38e-08
2.67e-08
1.659e-07
5.655e-06
0.0001687
0.0002626
7.735e-05
6.491e-06
1.55e-06
7.323e-07
6.326e-07
9.259e-07
2.783e-06
1.132e-05
5.581e-05
0.0007419
0.006204
0.08522
0.6478
0.8952
0.9752
0.9955
0.9995
0.9999
1
1
1
1
1
1
1
1
1
1
1
1
1
1
1
1
1
1
1
1
1
1
1
1
1
0.9996
0.9971
0.9905
0.9653
0.8661
0.2439
0.008873
0.001471
0.00219
0.003526
0.009341
0.01148
0.01942
0.02232
0.01836
0.0115
0.009485
0.01097
0.02256
0.09624
0.5007
0.8698
0.9653
0.9869
0.9951
0.9979
0.9992
0.9998
1
1
1
1
1
1
1
1
1
1
1
1
1
1
1
1
1
1
1
1
1
1
1
1
1
1
1
1
3.003e-07
2.493e-07
3.594e-07
7.746e-07
1.538e-06
2.763e-06
8.248e-07
3.683e-07
3.84e-07
8.153e-07
1.71e-06
1.268e-05
5.298e-05
0.0001149
0.0001933
0.0001392
2.122e-05
8.344e-07
5.773e-08
1.307e-08
8.13e-08
3.741e-06
0.0002982
0.002427
0.00644
0.003478
0.003081
0.002435
0.00262
0.00325
0.002396
0.0006397
0.0001079
2.325e-05
7.063e-06
7.583e-06
2.768e-05
6.613e-05
6.923e-05
1.858e-05
2.351e-06
2.221e-07
7.234e-08
5.044e-08
3.677e-08
3.35e-08
1.276e-08
4.103e-09
6.135e-10
4.303e-10
1.61e-09
2.637e-08
8.52e-07
4.937e-06
2.215e-06
2.729e-07
1.751e-07
8.802e-07
2.587e-05
0.0001424
5.029e-05
6.795e-06
5.217e-07
3.164e-07
8.797e-07
4.124e-06
2.607e-05
0.0003611
0.004365
0.06087
0.7268
0.9561
0.9922
0.9983
0.9998
1
1
1
1
1
1
1
1
1
1
1
1
1
1
1
1
1
1
1
1
1
1
1
1
1
1
1
1
1
1
1
1
1
0.9998
0.9992
0.9976
0.996
0.9958
0.995
0.9951
0.9928
0.9923
0.9927
0.9925
0.9928
0.9925
0.9927
0.9948
0.9975
0.9989
0.9998
0.9999
1
1
1
1
1
1
1
1
1
1
1
1
1
1
1
1
1
1
1
1
1
1
1
1
1
1
1
1
1
1
1
1
1
3.967e-07
4.606e-07
8.643e-07
1.279e-06
2.215e-06
2.867e-06
1.469e-06
1e-06
2.587e-06
3.229e-06
6.846e-06
2.519e-05
7.467e-05
9.93e-05
0.0001438
0.0001428
8.348e-05
5.802e-06
5.687e-07
9.905e-08
3.973e-07
9.346e-06
0.0003851
0.001765
0.00308
0.002409
0.003414
0.004519
0.005813
0.006316
0.004636
0.002132
0.0008046
0.0002683
7.606e-05
5.28e-05
8.475e-05
0.0001308
0.000141
8.761e-05
2.465e-05
5.713e-06
3.162e-06
2.144e-06
7.748e-07
7.982e-07
4.773e-07
2.495e-07
5.614e-08
3.123e-08
3.027e-08
1.244e-07
6.022e-07
1.321e-06
7.12e-07
3.087e-07
6.692e-07
6.943e-06
9.534e-05
0.0001568
3.028e-05
8.25e-06
2.991e-06
7.272e-06
8.632e-05
0.001593
0.02002
0.5735
0.9351
0.9885
0.9987
0.9999
1
1
1
1
1
1
1
1
1
1
1
1
1
1
1
1
1
1
1
1
1
1
1
1
1
1
1
1
1
1
1
1
1
1
1
1
1
1
1
1
1
1
1
1
1
1
1
1
1
1
1
1
1
1
1
1
1
1
1
1
1
1
1
1
1
1
1
1
1
1
1
1
1
1
1
1
1
1
1
1
1
1
1
1
1
1
1
1
1.54e-06
1.879e-06
4.018e-06
2.1e-06
3.28e-06
2.526e-06
2.868e-06
4.371e-06
1.379e-05
7.444e-06
1.389e-05
1.154e-05
3.625e-05
3.191e-05
5.848e-05
3.633e-05
1.1e-05
3.858e-07
2.599e-08
4.682e-09
1.973e-08
4.931e-07
2.66e-05
0.0001426
0.0004556
0.0005507
0.0008719
0.001647
0.002784
0.003017
0.00253
0.001647
0.001368
0.0009011
0.0004319
0.0002554
0.0003383
0.0004254
0.0005786
0.0007588
0.000252
9.974e-05
5.43e-05
4.761e-05
2.001e-05
3.358e-05
2.695e-05
2.031e-05
7.085e-06
4.907e-06
2.348e-06
1.988e-06
2.506e-06
3.477e-06
3.174e-06
2.138e-06
5.31e-06
2.037e-05
0.0001073
0.0001445
9.066e-05
7.901e-05
0.0001751
0.002217
0.08549
0.8302
0.9743
0.9982
0.9999
1
1
1
1
1
1
1
1
1
1
1
1
1
1
1
1
1
1
1
1
1
1
1
1
1
1
1
1
1
1
1
1
1
1
1
1
1
1
1
1
1
1
1
1
1
1
1
1
1
1
1
1
1
1
1
1
1
1
1
1
1
1
1
1
1
1
1
1
1
1
1
1
1
1
1
1
1
1
1
1
1
1
1
1
1
1
1
1
1
1
1
3.57e-06
4.984e-06
1.523e-05
6.302e-06
4.969e-06
2.353e-06
3.574e-06
7.844e-06
2.122e-05
9.19e-06
1.576e-05
1.016e-05
1.433e-05
2.095e-05
1.802e-05
2.071e-06
3.223e-07
7.402e-09
4.078e-10
8.658e-11
6.395e-10
4.811e-08
5.12e-06
6.088e-05
0.0003276
0.0003095
0.0007085
0.00135
0.002547
0.002688
0.002405
0.00177
0.001962
0.002058
0.001499
0.001211
0.001628
0.0018
0.002471
0.003996
0.001584
0.0007088
0.0003774
0.0004128
0.0001857
0.0002018
0.0001712
0.0001877
0.0001791
0.0001946
0.0001054
4.709e-05
2.88e-05
1.391e-05
9.528e-06
8.111e-06
1.416e-05
4.638e-05
0.0003778
0.0009714
0.002955
0.01572
0.1104
0.8125
0.9824
0.9988
0.9999
1
1
1
1
1
1
1
1
1
1
1
1
1
1
1
1
1
1
1
1
1
1
1
1
1
1
1
1
1
1
1
1
1
1
1
1
1
1
1
1
1
1
1
1
1
1
1
1
1
1
1
1
1
1
1
1
1
1
1
1
1
1
1
1
1
1
1
1
1
1
1
1
1
1
1
1
1
1
1
1
1
1
1
1
1
1
1
1
1
1
1
1
1
8.073e-06
1.544e-05
6.116e-05
3.323e-05
1.491e-05
6.836e-06
1.336e-05
2.07e-05
3.296e-05
1.654e-05
1.775e-05
1.822e-05
2.706e-05
3.743e-05
6.288e-06
2.533e-07
1.696e-08
4.583e-10
5.19e-11
2.218e-11
4.484e-10
4.164e-08
4.023e-06
6.43e-05
0.0005078
0.0004136
0.0007244
0.001339
0.002162
0.001974
0.001708
0.001142
0.001548
0.001842
0.002334
0.002608
0.00415
0.004026
0.004977
0.006915
0.003524
0.002317
0.001593
0.001602
0.0006044
0.0004069
0.0001908
0.0001795
0.0002946
0.0005508
0.0003904
0.0001379
7.525e-05
3.282e-05
4.275e-05
5.242e-05
0.0001432
0.0004887
0.005897
0.04887
0.3846
0.8769
0.9889
0.9995
1
1
1
1
1
1
1
1
1
1
1
1
1
1
1
1
1
1
1
1
1
1
1
1
1
1
1
1
1
1
1
1
1
1
1
1
1
1
1
1
1
1
1
1
1
1
1
1
1
1
1
1
1
1
1
1
1
1
1
1
1
1
1
1
1
1
1
1
1
1
1
1
1
1
1
1
1
1
1
1
1
1
1
1
1
1
1
1
1
1
1
1
1
1
1
1
5.502e-06
1.635e-05
9.615e-05
5.313e-05
2.16e-05
1.813e-05
3.838e-05
0.000133
0.0001352
6.954e-05
3.9e-05
3.256e-05
3.111e-05
3.964e-05
1.431e-06
4.226e-08
4.059e-09
3.993e-10
1.067e-10
1.052e-10
3.235e-09
2.44e-07
2.609e-05
0.0003079
0.0014
0.000706
0.0009446
0.001242
0.001904
0.001934
0.001821
0.001374
0.00213
0.002593
0.002528
0.002752
0.003502
0.002068
0.001347
0.001451
0.001311
0.001959
0.003591
0.005037
0.002186
0.0008395
0.0001628
8.057e-05
5.913e-05
8.146e-05
6.711e-05
4.28e-05
6.692e-05
0.0001192
0.0002927
0.000929
0.006067
0.03398
0.6483
0.9508
0.9942
0.9995
1
1
1
1
1
1
1
1
1
1
1
1
1
1
1
1
1
1
1
1
1
1
1
1
1
1
1
1
1
1
1
1
1
1
1
1
1
1
1
1
1
1
1
1
1
1
1
1
1
1
1
1
1
1
1
1
1
1
1
1
1
1
1
1
1
1
1
1
1
1
1
1
1
1
1
1
1
1
1
1
1
1
1
1
1
1
1
1
1
1
1
1
1
1
1
1
1
1
1.334e-05
3.774e-05
0.0001565
9.56e-05
2.248e-05
2.709e-05
9.349e-05
0.0004827
0.0004494
0.0001734
6.753e-05
4.186e-05
1.728e-05
1.664e-05
6.078e-07
2.634e-08
9.428e-09
5.927e-09
4.093e-09
8.59e-09
1.897e-07
6.33e-06
0.0002592
0.001774
0.005215
0.002384
0.002574
0.002241
0.00231
0.001845
0.001649
0.001652
0.003065
0.004056
0.003295
0.003064
0.003019
0.001604
0.0008511
0.0006462
0.0004785
0.0007516
0.001417
0.002161
0.001329
0.0008025
0.0002104
7.157e-05
2.415e-05
1.683e-05
1.266e-05
1.692e-05
7.629e-05
0.0004867
0.003179
0.0312
0.5674
0.9282
0.9954
0.9997
1
1
1
1
1
1
1
1
1
1
1
1
1
1
1
1
1
1
1
1
1
1
1
1
1
1
1
1
1
1
1
1
1
1
1
1
1
1
1
1
1
1
1
1
1
1
1
1
1
1
1
1
1
1
1
1
1
1
1
1
1
1
1
1
1
1
1
1
1
1
1
1
1
1
1
1
1
1
1
1
1
1
1
1
1
1
1
1
1
1
1
1
1
1
1
1
1
1
1
1
2.992e-05
7.361e-05
0.0002842
0.0001862
4.461e-05
7.045e-05
0.0001778
0.0008668
0.0007807
0.0002574
5.699e-05
3.719e-05
1.976e-05
1.516e-05
1.096e-06
1.409e-07
1.729e-07
4.547e-07
6.537e-07
1.505e-06
1.354e-05
0.0001169
0.0009956
0.003054
0.005513
0.002965
0.003535
0.002948
0.002661
0.00173
0.00194
0.002929
0.00629
0.009403
0.006416
0.004393
0.002415
0.001107
0.0004777
0.000307
0.0001942
0.0002979
0.0004758
0.0006789
0.0007697
0.0007707
0.0003406
0.0001546
5.013e-05
1.863e-05
9.679e-06
4.122e-05
0.0005086
0.008265
0.2706
0.9182
0.9952
0.9997
1
1
1
1
1
1
1
1
1
1
1
1
1
1
1
1
1
1
1
1
1
1
1
1
1
1
1
1
1
1
1
1
1
1
1
1
1
1
1
1
1
1
1
1
1
1
1
1
1
1
1
1
1
1
1
1
1
1
1
1
1
1
1
1
1
1
1
1
1
1
1
1
1
1
1
1
1
1
1
1
1
1
1
1
1
1
1
1
1
1
1
1
1
1
1
1
1
1
1
1
1
1
0.0001054
0.0002385
0.0006706
0.0002909
7.858e-05
0.0001098
0.0001514
0.0008527
0.00129
0.0005614
0.0001577
0.0001626
9.773e-05
6.869e-05
9.829e-06
2.066e-06
2.753e-06
1.034e-05
2.219e-05
9.017e-05
0.0003409
0.0005842
0.0008512
0.0008295
0.000754
0.0008617
0.00251
0.002157
0.001962
0.001111
0.0009702
0.001184
0.002886
0.005574
0.005107
0.003959
0.002273
0.001236
0.0007793
0.0005644
0.000309
0.0002645
0.0002257
0.0002029
0.0002906
0.0004769
0.0004793
0.0004171
0.0002374
0.0001001
0.0001645
0.001064
0.05383
0.8295
0.9888
0.9993
1
1
1
1
1
1
1
1
1
1
1
1
1
1
1
1
1
1
1
1
1
1
1
1
1
1
1
1
1
1
1
1
1
1
1
1
1
1
1
1
1
1
1
1
1
1
1
1
1
1
1
1
1
1
1
1
1
1
1
1
1
1
1
1
1
1
1
1
1
1
1
1
1
1
1
1
1
1
1
1
1
1
1
1
1
1
1
1
1
1
1
1
1
1
1
1
1
1
1
1
1
1
1
1
0.0001842
0.000386
0.0009595
0.0003729
0.000112
6.693e-05
4.8e-05
0.0003083
0.0009876
0.001029
0.0004286
0.000739
0.0004756
0.0003268
9.605e-05
3.528e-05
4.724e-05
0.0001719
0.0002644
0.0007641
0.001445
0.001027
0.000592
0.0003346
0.0002894
0.0004866
0.002699
0.002289
0.002127
0.001289
0.0009757
0.0007766
0.00144
0.00301
0.004241
0.004949
0.003954
0.002798
0.002319
0.00156
0.0005396
0.0002575
0.0001322
8.468e-05
0.0001206
0.0003298
0.000576
0.00107
0.002273
0.003618
0.02247
0.6088
0.977
0.9988
0.9999
1
1
1
1
1
1
1
1
1
1
1
1
1
1
1
1
1
1
1
1
1
1
1
1
1
1
1
1
0.9999
0.9998
0.9996
0.9984
0.9965
0.9942
0.9925
0.9936
0.9938
0.9923
0.9942
0.9964
0.9975
0.9994
0.9998
0.9999
1
1
1
1
1
1
1
1
1
1
1
1
1
1
1
1
1
1
1
1
1
1
1
1
1
1
1
1
1
1
1
1
1
1
1
1
1
1
1
1
1
1
1
1
1
1
1
1
1
1
1
1
1
1
1
1
1
1
1
1
1
0.0003048
0.0005763
0.00143
0.0003489
0.0001049
2.325e-05
1.214e-05
9.719e-05
0.001038
0.002872
0.002544
0.004375
0.00253
0.001654
0.0007189
0.0004536
0.0003194
0.0007464
0.0007195
0.001543
0.002036
0.001063
0.0005567
0.0002691
0.0004427
0.001045
0.005815
0.004852
0.003673
0.002021
0.001347
0.0006645
0.0007698
0.001437
0.002895
0.005635
0.008022
0.005971
0.005535
0.003654
0.001196
0.000469
0.0001676
8.875e-05
0.0001376
0.0004155
0.001033
0.003578
0.02425
0.2198
0.9069
0.9959
0.9999
1
1
1
1
1
1
1
1
1
1
1
1
1
1
1
1
1
1
1
1
1
1
1
1
1
1
0.9998
0.9991
0.9965
0.9943
0.9879
0.9759
0.9201
0.6996
0.2494
0.07317
0.0297
0.02042
0.01627
0.02276
0.04899
0.1231
0.216
0.7578
0.9402
0.986
0.9953
0.9988
0.9996
0.9999
1
1
1
1
1
1
1
1
1
1
1
1
1
1
1
1
1
1
1
1
1
1
1
1
1
1
1
1
1
1
1
1
1
1
1
1
1
1
1
1
1
1
1
1
1
1
1
1
1
1
1
1
1
1
1
1
1
0.0002743
0.0004208
0.001193
0.000417
0.000303
4.636e-05
2.117e-05
6.301e-05
0.0006543
0.001314
0.002052
0.00371
0.003511
0.002428
0.001219
0.001118
0.0007794
0.001312
0.001799
0.002423
0.002262
0.001273
0.0008351
0.0004995
0.0005425
0.0008824
0.003607
0.003772
0.004305
0.003442
0.002405
0.0008459
0.0006563
0.0007905
0.001849
0.004621
0.008265
0.005411
0.004794
0.003321
0.001269
0.0005311
0.0002316
0.0002251
0.0004789
0.001974
0.007564
0.06478
0.751
0.9778
0.9992
1
1
1
1
1
1
1
1
1
1
1
1
1
1
1
1
1
1
1
1
1
1
1
1
1
0.9998
0.998
0.9878
0.9492
0.7777
0.1886
0.05901
0.02452
0.009169
0.003203
0.001088
0.0006934
0.00061
0.0005268
0.0003359
0.000244
0.0004687
0.0009627
0.001444
0.002013
0.004072
0.008643
0.03349
0.1246
0.489
0.85
0.9705
0.9956
0.9993
0.9998
1
1
1
1
1
1
1
1
1
1
1
1
1
1
1
1
1
1
1
1
1
1
1
1
1
1
1
1
1
1
1
1
1
1
1
1
1
1
1
1
1
1
1
1
1
1
1
1
1
1
1
1
1
0.9999
0.0002783
0.0002897
0.0008772
0.0004972
0.0007058
8.935e-05
5.333e-05
5.823e-05
0.0003101
0.0006145
0.001368
0.002256
0.003358
0.003029
0.001187
0.0009631
0.0008155
0.001549
0.003728
0.004643
0.003592
0.002289
0.001995
0.001541
0.001422
0.001338
0.002815
0.003037
0.00402
0.004341
0.003246
0.000974
0.0007683
0.0007339
0.001607
0.003838
0.007275
0.00469
0.00404
0.002537
0.001089
0.0006407
0.0004705
0.000653
0.002432
0.01617
0.2155
0.9057
0.9955
0.9998
1
1
1
1
1
1
1
1
1
1
1
1
1
1
1
1
1
1
1
1
1
1
1
0.9998
0.9974
0.9854
0.9216
0.6304
0.1003
0.02147
0.0028
0.0009866
0.0006398
0.0003217
0.0001087
4.889e-05
1.537e-05
1.462e-05
2.845e-05
3.633e-05
2.716e-05
2.321e-05
4.992e-05
0.0001018
0.0001106
0.0001325
0.0001342
0.0001588
0.000428
0.00108
0.001631
0.004883
0.02345
0.1532
0.7075
0.9265
0.9902
0.9986
0.9997
0.9999
1
1
1
1
1
1
1
1
1
1
1
1
1
1
1
1
1
1
1
1
1
1
1
1
1
1
1
1
1
1
1
1
1
1
1
1
1
1
1
1
1
1
1
1
1
0.9997
0.9981
0.9927
0.9817
0.9452
0.0003784
0.0002203
0.0007176
0.0004069
0.0007883
0.0001194
8.808e-05
4.473e-05
0.000117
0.0002536
0.0006847
0.001443
0.003554
0.004179
0.001211
0.0007871
0.0009405
0.002511
0.003044
0.001897
0.0008341
0.0007711
0.001813
0.004268
0.003899
0.001905
0.001766
0.002146
0.003339
0.004077
0.00371
0.001722
0.001548
0.001055
0.00124
0.001411
0.001697
0.001156
0.001553
0.001374
0.0008911
0.0008316
0.001214
0.003725
0.04307
0.645
0.9711
0.9989
1
1
1
1
1
1
1
1
1
1
1
1
1
1
1
1
1
1
1
1
1
1
0.9999
0.9996
0.993
0.9308
0.6259
0.1038
0.01714
0.002746
0.0005186
0.0001948
5.107e-05
3.483e-05
3.115e-05
2.267e-05
7.031e-06
5.24e-06
2.671e-06
3.68e-06
7.385e-06
1.212e-05
1.122e-05
1.059e-05
2.026e-05
3.61e-05
2.388e-05
1.701e-05
1.051e-05
1.062e-05
2.187e-05
3.416e-05
3.206e-05
6.018e-05
0.0002034
0.001073
0.006027
0.03449
0.1796
0.6678
0.9405
0.9949
0.9999
1
1
1
1
1
1
1
1
1
1
1
1
1
1
1
1
1
1
1
1
1
1
1
1
1
1
1
1
1
1
1
1
1
1
1
1
1
1
1
0.9999
0.9995
0.998
0.9918
0.9593
0.7887
0.3641
0.1181
0.08825
0.009598
0.0004475
0.0001983
0.0008227
0.0004297
0.0006991
0.0001291
8.85e-05
4.778e-05
0.0001435
0.0002679
0.0003906
0.0007075
0.002318
0.00379
0.0009521
0.0005774
0.0005553
0.00143
0.001465
0.00118
0.0003445
0.0003283
0.0008034
0.004087
0.004641
0.002489
0.002032
0.002267
0.003559
0.004085
0.004142
0.003165
0.003553
0.002554
0.001868
0.0009675
0.0005919
0.0003894
0.0006994
0.001063
0.001596
0.002698
0.01078
0.09045
0.8566
0.9906
0.9997
1
1
1
1
1
1
1
1
1
1
1
1
1
1
1
1
1
1
1
1
1
0.9999
0.9985
0.9773
0.863
0.1318
0.01373
0.003042
0.001299
0.0003766
0.0001016
2.832e-05
1.212e-05