/*--------------------------------*- C++ -*----------------------------------*\
| =========                 |                                                 |
| \\      /  F ield         | OpenFOAM: The Open Source CFD Toolbox           |
|  \\    /   O peration     | Version:  5.x                                   |
|   \\  /    A nd           | Web:      www.OpenFOAM.org                      |
|    \\/     M anipulation  |                                                 |
\*---------------------------------------------------------------------------*/
FoamFile
{
    version     2.0;
    format      ascii;
    class       volScalarField;
    location    "75";
    object      gamma;
}
// * * * * * * * * * * * * * * * * * * * * * * * * * * * * * * * * * * * * * //

dimensions      [0 0 0 0 0 0 0];

internalField   nonuniform List<scalar> 
80000
(
1
1
1
1
1
1
1
1
1
1
1
1
1
1
1
1
1
1
1
1
1
1
1
1
1
1
1
1
1
1
1
1
1
1
1
1
1
1
1
1
1
1
1
1
1
1
1
1
1
1
1
1
1
1
1
1
1
1
1
1
1
1
1
1
1
1
1
1
1
1
1
1
1
1
1
1
1
1
1
1
1
1
1
1
1
1
1
1
1
1
1
1
1
1
1
1
1
1
1
1
1
1
1
1
1
1
1
1
1
1
1
1
1
1
1
1
1
1
1
1
1
1
1
1
1
1
1
1
1
1
1
1
1
1
1
1
1
1
1
1
1
1
1
1
1
1
1
1
1
1
1
1
1
1
1
1
1
1
1
1
1
1
1
1
1
1
1
1
1
1
1
1
1
1
1
1
1
1
1
1
1
1
1
1
1
1
1
1
1
1
1
1
1
1
1
1
1
1
1
1
1
1
1
1
1
1
1
1
1
1
1
1
1
1
1
1
1
1
1
1
1
1
1
1
1
1
1
1
1
1
1
1
1
1
1
1
1
1
1
1
1
1
1
1
1
1
1
1
1
1
1
1
1
1
1
1
0.99999
0.99999
0.99997
0.99991
0.99906
0.97523
0.21348
0.0013221
3.4799e-05
3.1355e-06
3.7026e-07
4.1477e-08
7.3556e-09
3.034e-09
4.4176e-09
1.8262e-08
1.0881e-07
5.1286e-07
1.5959e-06
2.3822e-06
2.37e-06
2.4287e-06
4.0552e-06
8.6606e-06
2.3162e-05
4.1481e-05
6.2548e-05
7.243e-05
4.6156e-05
2.3227e-05
8.9194e-06
4.964e-06
4.3483e-06
6.4621e-06
7.0859e-06
6.9509e-06
6.6751e-06
6.4274e-06
6.2009e-06
6.0542e-06
5.9858e-06
5.9462e-06
5.938e-06
5.8782e-06
5.7838e-06
5.6595e-06
5.5266e-06
5.4219e-06
5.3472e-06
5.2935e-06
5.2721e-06
5.2371e-06
5.1188e-06
4.9051e-06
4.6383e-06
4.5572e-06
5.1799e-06
7.8118e-06
1.1244e-05
5.9481e-06
2.1003e-06
5.4081e-07
2.2946e-07
1.7918e-07
2.7682e-07
3.0343e-07
2.921e-07
2.7748e-07
2.6842e-07
2.632e-07
2.5858e-07
2.538e-07
2.4896e-07
2.4422e-07
2.3963e-07
2.3519e-07
2.3087e-07
2.2667e-07
2.2259e-07
2.186e-07
2.1472e-07
2.1094e-07
2.0726e-07
2.0367e-07
2.0018e-07
1.9678e-07
1.9348e-07
1.9026e-07
1.8714e-07
1.8412e-07
1.8119e-07
1.7836e-07
1.7562e-07
1.7299e-07
1.7045e-07
1.6802e-07
1.6569e-07
1.6346e-07
1.6134e-07
1.5933e-07
1.5742e-07
1.5562e-07
1.5393e-07
1.5235e-07
1.5087e-07
1.495e-07
1.4824e-07
1.4708e-07
1.4601e-07
1.4505e-07
1.4418e-07
1.4341e-07
1.4272e-07
1.4212e-07
1.416e-07
1.4115e-07
1.4077e-07
1.4045e-07
1.402e-07
1.3999e-07
1.3983e-07
1.3972e-07
1.3964e-07
1.3959e-07
1.3956e-07
1.3955e-07
1.3955e-07
1.3957e-07
1.3959e-07
1.3961e-07
1.3964e-07
1.397e-07
1.3973e-07
1.3951e-07
1.3886e-07
1.3868e-07
1.4121e-07
1.4831e-07
1.5153e-07
1.1914e-07
9.3406e-08
1.1082e-07
1.3823e-07
2.2236e-07
1
1
1
1
1
1
1
1
1
1
1
1
1
1
1
1
1
1
1
1
1
1
1
1
1
1
1
1
1
1
1
1
1
1
1
1
1
1
1
1
1
1
1
1
1
1
1
1
1
1
1
1
1
1
1
1
1
1
1
1
1
1
1
1
1
1
1
1
1
1
1
1
1
1
1
1
1
1
1
1
1
1
1
1
1
1
1
1
1
1
1
1
1
1
1
1
1
1
1
1
1
1
1
1
1
1
1
1
1
1
1
1
1
1
1
1
1
1
1
1
1
1
1
1
1
1
1
1
1
1
1
1
1
1
1
1
1
1
1
1
1
1
1
1
1
1
1
1
1
1
1
1
1
1
1
1
1
1
1
1
1
1
1
1
1
1
1
1
1
1
1
1
1
1
1
1
1
1
1
1
1
1
1
1
1
1
1
1
1
1
1
1
1
1
1
1
1
1
1
1
1
1
1
1
1
1
1
1
1
1
1
1
1
1
1
1
1
1
1
1
1
1
1
1
1
1
1
1
1
1
1
1
1
1
1
1
1
1
1
1
1
1
1
1
1
1
1
1
1
1
1
1
1
1
1
1
1
0.99999
0.99998
0.99995
0.99967
0.99666
0.96138
0.68395
0.066223
0.0065309
0.00047023
1.9436e-05
8.7809e-07
7.3026e-08
1.989e-08
1.8246e-08
3.5967e-08
8.0834e-08
1.796e-07
3.3839e-07
6.8242e-07
1.5774e-06
4.678e-06
1.4432e-05
2.8928e-05
4.3684e-05
5.0513e-05
4.2874e-05
2.2859e-05
1.0563e-05
4.55e-06
3.2086e-06
3.3252e-06
4.6806e-06
5.0341e-06
4.9045e-06
4.6837e-06
4.5063e-06
4.3749e-06
4.2995e-06
4.264e-06
4.2456e-06
4.198e-06
4.1298e-06
4.0493e-06
3.9579e-06
3.8683e-06
3.8048e-06
3.7572e-06
3.7285e-06
3.6964e-06
3.6485e-06
3.5386e-06
3.379e-06
3.2294e-06
3.3159e-06
4.0885e-06
5.104e-06
4.8118e-06
2.0669e-06
6.8643e-07
2.1321e-07
1.2647e-07
1.2365e-07
1.8008e-07
1.9261e-07
1.8447e-07
1.7539e-07
1.6984e-07
1.6653e-07
1.6357e-07
1.605e-07
1.5742e-07
1.5442e-07
1.5152e-07
1.4871e-07
1.4598e-07
1.4333e-07
1.4074e-07
1.3823e-07
1.3578e-07
1.334e-07
1.3107e-07
1.2881e-07
1.266e-07
1.2445e-07
1.2236e-07
1.2033e-07
1.1836e-07
1.1645e-07
1.1459e-07
1.1279e-07
1.1106e-07
1.0939e-07
1.0778e-07
1.0623e-07
1.0475e-07
1.0333e-07
1.0197e-07
1.0069e-07
9.9467e-08
9.8314e-08
9.7228e-08
9.6208e-08
9.5256e-08
9.4369e-08
9.3548e-08
9.2791e-08
9.2097e-08
9.1464e-08
9.0891e-08
9.0375e-08
8.9915e-08
8.9507e-08
8.9149e-08
8.8838e-08
8.8571e-08
8.8344e-08
8.8155e-08
8.7999e-08
8.7874e-08
8.7776e-08
8.7701e-08
8.7645e-08
8.7607e-08
8.7582e-08
8.7568e-08
8.7562e-08
8.7561e-08
8.7564e-08
8.758e-08
8.7612e-08
8.7624e-08
8.7481e-08
8.7057e-08
8.6954e-08
8.8608e-08
9.3207e-08
9.5243e-08
7.4196e-08
5.7813e-08
6.9433e-08
8.6512e-08
1.3823e-07
1
1
1
1
1
1
1
1
1
1
1
1
1
1
1
1
1
1
1
1
1
1
1
1
1
1
1
1
1
1
1
1
1
1
1
1
1
1
1
1
1
1
1
1
1
1
1
1
1
1
1
1
1
1
1
1
1
1
1
1
1
1
1
1
1
1
1
1
1
1
1
1
1
1
1
1
1
1
1
1
1
1
1
1
1
1
1
1
1
1
1
1
1
1
1
1
1
1
1
1
1
1
1
1
1
1
1
1
1
1
1
1
1
1
1
1
1
1
1
1
1
1
1
1
1
1
1
1
1
1
1
1
1
1
1
1
1
1
1
1
1
1
1
1
1
1
1
1
1
1
1
1
1
1
1
1
1
1
1
1
1
1
1
1
1
1
1
1
1
1
1
1
1
1
1
1
1
1
1
1
1
1
1
1
1
1
1
1
1
1
1
1
1
1
1
1
1
1
1
1
1
1
1
1
1
1
1
1
1
1
1
1
1
1
1
1
1
1
1
1
1
1
1
1
1
1
1
1
1
1
1
1
1
1
1
1
1
1
1
1
1
1
1
1
1
1
1
1
1
1
1
1
1
1
1
1
1
1
0.99999
0.99998
0.99995
0.99977
0.99874
0.99381
0.97545
0.91713
0.6352
0.032054
0.00075147
1.6835e-05
9.9163e-07
1.6268e-07
6.1462e-08
3.4387e-08
3.6436e-08
6.2421e-08
1.9332e-07
8.6562e-07
4.682e-06
1.6232e-05
3.4601e-05
4.5384e-05
3.9312e-05
2.4838e-05
1.1451e-05
4.8386e-06
3.0417e-06
2.7313e-06
3.1857e-06
4.1316e-06
4.3177e-06
4.1565e-06
3.9644e-06
3.8264e-06
3.7389e-06
3.6924e-06
3.6708e-06
3.6275e-06
3.5669e-06
3.4952e-06
3.418e-06
3.3446e-06
3.2773e-06
3.2306e-06
3.1923e-06
3.1646e-06
3.1257e-06
3.065e-06
2.9496e-06
2.8127e-06
2.754e-06
3.0239e-06
4.1592e-06
4.2013e-06
2.7442e-06
9.6195e-07
2.6809e-07
1.1275e-07
9.5868e-08
1.1175e-07
1.4907e-07
1.5422e-07
1.4701e-07
1.4022e-07
1.361e-07
1.3349e-07
1.311e-07
1.2864e-07
1.2618e-07
1.238e-07
1.215e-07
1.1927e-07
1.1711e-07
1.1501e-07
1.1297e-07
1.1098e-07
1.0905e-07
1.0716e-07
1.0532e-07
1.0353e-07
1.0179e-07
1.0009e-07
9.8431e-08
9.6821e-08
9.5255e-08
9.3735e-08
9.226e-08
9.0832e-08
8.9451e-08
8.8117e-08
8.6831e-08
8.5594e-08
8.4406e-08
8.3269e-08
8.2183e-08
8.1147e-08
8.0164e-08
7.9232e-08
7.8353e-08
7.7525e-08
7.6749e-08
7.6025e-08
7.5352e-08
7.4728e-08
7.4153e-08
7.3627e-08
7.3147e-08
7.2712e-08
7.232e-08
7.1969e-08
7.1658e-08
7.1384e-08
7.1144e-08
7.0937e-08
7.076e-08
7.0609e-08
7.0484e-08
7.0381e-08
7.0298e-08
7.0231e-08
7.018e-08
7.0141e-08
7.0113e-08
7.0092e-08
7.0078e-08
7.007e-08
7.0074e-08
7.0093e-08
7.0099e-08
6.998e-08
6.9636e-08
6.9554e-08
7.0903e-08
7.4642e-08
7.6296e-08
5.9207e-08
4.5907e-08
5.5451e-08
6.9433e-08
1.1082e-07
1
1
1
1
1
1
1
1
1
1
1
1
1
1
1
1
1
1
1
1
1
1
1
1
1
1
1
1
1
1
1
1
1
1
1
1
1
1
1
1
1
1
1
1
1
1
1
1
1
1
1
1
1
1
1
1
1
1
1
1
1
1
1
1
1
1
1
1
1
1
1
1
1
1
1
1
1
1
1
1
1
1
1
1
1
1
1
1
1
1
1
1
1
1
1
1
1
1
1
1
1
1
1
1
1
1
1
1
1
1
1
1
1
1
1
1
1
1
1
1
1
1
1
1
1
1
1
1
1
1
1
1
1
1
1
1
1
1
1
1
1
1
1
1
1
1
1
1
1
1
1
1
1
1
1
1
1
1
1
1
1
1
1
1
1
1
1
1
1
1
1
1
1
1
1
1
1
1
1
1
1
1
1
1
1
1
1
1
1
1
1
1
1
1
1
1
1
1
1
1
1
1
1
1
1
1
1
1
1
1
1
1
1
1
1
1
1
1
1
1
1
1
1
1
1
1
1
1
1
1
1
1
1
1
1
1
1
1
1
1
1
1
1
1
1
1
1
1
1
1
1
1
1
1
1
1
1
1
1
1
0.99999
0.99999
0.99999
0.99997
0.99994
0.99982
0.99921
0.99295
0.89373
0.04537
0.0004687
1.0046e-05
5.3939e-07
6.2863e-08
2.161e-08
1.9759e-08
5.66e-08
3.6307e-07
2.3912e-06
1.1321e-05
2.7359e-05
3.1813e-05
2.2003e-05
1.0882e-05
4.491e-06
2.7151e-06
2.349e-06
2.6459e-06
3.3251e-06
3.8298e-06
3.8174e-06
3.6249e-06
3.4578e-06
3.3518e-06
3.299e-06
3.2803e-06
3.2509e-06
3.1932e-06
3.1232e-06
3.0461e-06
2.9761e-06
2.9203e-06
2.8709e-06
2.8372e-06
2.8084e-06
2.7712e-06
2.7251e-06
2.6488e-06
2.5241e-06
2.4093e-06
2.4611e-06
3.0012e-06
3.8002e-06
2.6243e-06
1.0766e-06
2.8367e-07
1.047e-07
6.6021e-08
8.2012e-08
1.0983e-07
1.2908e-07
1.2767e-07
1.2116e-07
1.162e-07
1.1318e-07
1.1107e-07
1.0906e-07
1.0701e-07
1.0497e-07
1.0301e-07
1.0112e-07
9.9288e-08
9.7516e-08
9.5796e-08
9.4123e-08
9.2496e-08
9.0911e-08
8.9368e-08
8.7863e-08
8.6396e-08
8.4966e-08
8.3573e-08
8.2215e-08
8.0893e-08
7.9607e-08
7.8357e-08
7.7144e-08
7.5966e-08
7.4826e-08
7.3724e-08
7.2659e-08
7.1633e-08
7.0647e-08
6.97e-08
6.8793e-08
6.7927e-08
6.7102e-08
6.6319e-08
6.5576e-08
6.4875e-08
6.4215e-08
6.3597e-08
6.3018e-08
6.248e-08
6.1981e-08
6.152e-08
6.1096e-08
6.0709e-08
6.0356e-08
6.0037e-08
5.9749e-08
5.9492e-08
5.9263e-08
5.906e-08
5.8883e-08
5.8728e-08
5.8594e-08
5.848e-08
5.8383e-08
5.8302e-08
5.8235e-08
5.8179e-08
5.8135e-08
5.81e-08
5.8072e-08
5.8052e-08
5.8045e-08
5.8053e-08
5.8051e-08
5.7947e-08
5.7656e-08
5.7589e-08
5.8729e-08
6.1871e-08
6.3248e-08
4.8888e-08
3.7767e-08
4.5907e-08
5.7814e-08
9.3406e-08
1
1
1
1
1
1
1
1
1
1
1
1
1
1
1
1
1
1
1
1
1
1
1
1
1
1
1
1
1
1
1
1
1
1
1
1
1
1
1
1
1
1
1
1
1
1
1
1
1
1
1
1
1
1
1
1
1
1
1
1
1
1
1
1
1
1
1
1
1
1
1
1
1
1
1
1
1
1
1
1
1
1
1
1
1
1
1
1
1
1
1
1
1
1
1
1
1
1
1
1
1
1
1
1
1
1
1
1
1
1
1
1
1
1
1
1
1
1
1
1
1
1
1
1
1
1
1
1
1
1
1
1
1
1
1
1
1
1
1
1
1
1
1
1
1
1
1
1
1
1
1
1
1
1
1
1
1
1
1
1
1
1
1
1
1
1
1
1
1
1
1
1
1
1
1
1
1
1
1
1
1
1
1
1
1
1
1
1
1
1
1
1
1
1
1
1
1
1
1
1
1
1
1
1
1
1
1
1
1
1
1
1
1
1
1
1
1
1
1
1
1
1
1
1
1
1
1
1
1
1
1
1
1
1
1
1
1
1
1
1
1
1
1
1
1
1
1
1
1
1
1
1
1
1
1
1
1
1
1
1
1
1
1
1
1
1
0.99999
0.99997
0.99971
0.99425
0.88334
0.042961
0.00046134
9.7638e-06
5.3827e-07
8.6509e-08
8.4371e-08
2.2241e-07
9.3012e-07
3.2693e-06
7.1244e-06
8.7128e-06
7.1413e-06
3.9055e-06
2.7412e-06
2.5694e-06
3.0262e-06
3.966e-06
4.8539e-06
4.9734e-06
4.7432e-06
4.4491e-06
4.2511e-06
4.1411e-06
4.1023e-06
4.0645e-06
4.013e-06
3.9164e-06
3.8164e-06
3.7275e-06
3.66e-06
3.6041e-06
3.5551e-06
3.5144e-06
3.4622e-06
3.406e-06
3.3413e-06
3.2289e-06
3.0614e-06
2.9417e-06
3.1672e-06
4.322e-06
4.366e-06
2.0672e-06
6.1288e-07
1.5923e-07
7.2869e-08
7.4202e-08
1.219e-07
1.648e-07
1.7105e-07
1.6257e-07
1.5413e-07
1.4883e-07
1.455e-07
1.4286e-07
1.4025e-07
1.3763e-07
1.3506e-07
1.3258e-07
1.3018e-07
1.2787e-07
1.2563e-07
1.2346e-07
1.2135e-07
1.193e-07
1.173e-07
1.1536e-07
1.1346e-07
1.1161e-07
1.0981e-07
1.0806e-07
1.0634e-07
1.0468e-07
1.0305e-07
1.0147e-07
9.9938e-08
9.8447e-08
9.7002e-08
9.5602e-08
9.4249e-08
9.2943e-08
9.1685e-08
9.0474e-08
8.9313e-08
8.8202e-08
8.714e-08
8.6128e-08
8.5167e-08
8.4257e-08
8.3396e-08
8.2586e-08
8.1825e-08
8.1114e-08
8.045e-08
7.9833e-08
7.9262e-08
7.8735e-08
7.8252e-08
7.7809e-08
7.7406e-08
7.7041e-08
7.6711e-08
7.6415e-08
7.6151e-08
7.5916e-08
7.5709e-08
7.5527e-08
7.5368e-08
7.5231e-08
7.5114e-08
7.5014e-08
7.4931e-08
7.4861e-08
7.4804e-08
7.4761e-08
7.4735e-08
7.4733e-08
7.4721e-08
7.4582e-08
7.4208e-08
7.412e-08
7.5564e-08
7.9549e-08
8.1301e-08
6.3088e-08
4.8888e-08
5.9207e-08
7.4196e-08
1.1914e-07
1
1
1
1
1
1
1
1
1
1
1
1
1
1
1
1
1
1
1
1
1
1
1
1
1
1
1
1
1
1
1
1
1
1
1
1
1
1
1
1
1
1
1
1
1
1
1
1
1
1
1
1
1
1
1
1
1
1
1
1
1
1
1
1
1
1
1
1
1
1
1
1
1
1
1
1
1
1
1
1
1
1
1
1
1
1
1
1
1
1
1
1
1
1
1
1
1
1
1
1
1
1
1
1
1
1
1
1
1
1
1
1
1
1
1
1
1
1
1
1
1
1
1
1
1
1
1
1
1
1
1
1
1
1
1
1
1
1
1
1
1
1
1
1
1
1
1
1
1
1
1
1
1
1
1
1
1
1
1
1
1
1
1
1
1
1
1
1
1
1
1
1
1
1
1
1
1
1
1
1
1
1
1
1
1
1
1
1
1
1
1
1
1
1
1
1
1
1
1
1
1
1
1
1
1
1
1
1
1
1
1
1
1
1
1
1
1
1
1
1
1
1
1
1
1
1
1
1
1
1
1
1
1
1
1
1
1
1
1
1
1
1
1
1
1
1
1
1
1
1
1
1
1
1
1
1
1
1
1
1
1
1
1
1
1
1
1
1
1
0.99997
0.99969
0.99456
0.88046
0.039515
0.00044505
1.0741e-05
1.3264e-06
5.4545e-07
5.5465e-07
6.3341e-07
7.5919e-07
8.2647e-07
8.6095e-07
1.0468e-06
1.674e-06
2.9549e-06
4.7415e-06
6.3496e-06
6.6799e-06
6.387e-06
5.9461e-06
5.5435e-06
5.3077e-06
5.1808e-06
5.1153e-06
5.0428e-06
4.9576e-06
4.8121e-06
4.6804e-06
4.5888e-06
4.5197e-06
4.4644e-06
4.4197e-06
4.361e-06
4.2828e-06
4.2082e-06
4.1255e-06
3.9729e-06
3.7563e-06
3.6437e-06
4.1082e-06
6.1501e-06
4.5321e-06
1.5789e-06
3.7853e-07
1.3231e-07
7.9358e-08
1.2634e-07
2.1224e-07
2.3856e-07
2.2707e-07
2.1039e-07
1.9948e-07
1.9331e-07
1.8916e-07
1.8556e-07
1.8204e-07
1.7859e-07
1.7525e-07
1.7204e-07
1.6894e-07
1.6594e-07
1.6303e-07
1.6021e-07
1.5747e-07
1.548e-07
1.5221e-07
1.497e-07
1.4724e-07
1.4485e-07
1.4252e-07
1.4026e-07
1.3804e-07
1.3589e-07
1.3379e-07
1.3175e-07
1.2977e-07
1.2784e-07
1.2597e-07
1.2416e-07
1.224e-07
1.2071e-07
1.1908e-07
1.175e-07
1.1599e-07
1.1454e-07
1.1316e-07
1.1183e-07
1.1057e-07
1.0937e-07
1.0824e-07
1.0716e-07
1.0615e-07
1.052e-07
1.0431e-07
1.0348e-07
1.0271e-07
1.0199e-07
1.0133e-07
1.0072e-07
1.0016e-07
9.9643e-08
9.9174e-08
9.8749e-08
9.8365e-08
9.8019e-08
9.7709e-08
9.7432e-08
9.7188e-08
9.6972e-08
9.6784e-08
9.6621e-08
9.6481e-08
9.6362e-08
9.6262e-08
9.6181e-08
9.6128e-08
9.6107e-08
9.6076e-08
9.5889e-08
9.5405e-08
9.5285e-08
9.7109e-08
1.0215e-07
1.0437e-07
8.1301e-08
6.3248e-08
7.6296e-08
9.5243e-08
1.5153e-07
1
1
1
1
1
1
1
1
1
1
1
1
1
1
1
1
1
1
1
1
1
1
1
1
1
1
1
1
1
1
1
1
1
1
1
1
1
1
1
1
1
1
1
1
1
1
1
1
1
1
1
1
1
1
1
1
1
1
1
1
1
1
1
1
1
1
1
1
1
1
1
1
1
1
1
1
1
1
1
1
1
1
1
1
1
1
1
1
1
1
1
1
1
1
1
1
1
1
1
1
1
1
1
1
1
1
1
1
1
1
1
1
1
1
1
1
1
1
1
1
1
1
1
1
1
1
1
1
1
1
1
1
1
1
1
1
1
1
1
1
1
1
1
1
1
1
1
1
1
1
1
1
1
1
1
1
1
1
1
1
1
1
1
1
1
1
1
1
1
1
1
1
1
1
1
1
1
1
1
1
1
1
1
1
1
1
1
1
1
1
1
1
1
1
1
1
1
1
1
1
1
1
1
1
1
1
1
1
1
1
1
1
1
1
1
1
1
1
1
1
1
1
1
1
1
1
1
1
1
1
1
1
1
1
1
1
1
1
1
1
1
1
1
1
1
1
1
1
1
1
1
1
1
1
1
1
1
1
1
1
1
1
1
1
1
1
1
1
1
1
1
0.99997
0.99955
0.99134
0.8306
0.02179
0.00040738
1.5794e-05
1.6486e-06
2.8839e-07
1.0614e-07
5.4211e-08
6.8633e-08
1.5043e-07
4.9178e-07
1.6412e-06
3.7041e-06
5.5596e-06
6.3265e-06
6.3609e-06
6.0748e-06
5.7349e-06
5.5074e-06
5.3358e-06
5.22e-06
5.1117e-06
5.0063e-06
4.8504e-06
4.7242e-06
4.6348e-06
4.5695e-06
4.5245e-06
4.4664e-06
4.3947e-06
4.3081e-06
4.236e-06
4.1609e-06
4.008e-06
3.7875e-06
3.7032e-06
4.2854e-06
6.7182e-06
3.5677e-06
1.1245e-06
2.6565e-07
1.0575e-07
7.4615e-08
1.5978e-07
2.38e-07
2.5012e-07
2.3235e-07
2.1449e-07
2.0353e-07
1.9684e-07
1.9179e-07
1.8734e-07
1.8327e-07
1.795e-07
1.76e-07
1.7268e-07
1.6948e-07
1.6639e-07
1.6339e-07
1.6047e-07
1.5764e-07
1.5489e-07
1.5222e-07
1.4962e-07
1.4709e-07
1.4464e-07
1.4225e-07
1.3992e-07
1.3765e-07
1.3545e-07
1.333e-07
1.3121e-07
1.2918e-07
1.2722e-07
1.2531e-07
1.2346e-07
1.2166e-07
1.1993e-07
1.1827e-07
1.1666e-07
1.1511e-07
1.1363e-07
1.1221e-07
1.1085e-07
1.0955e-07
1.0832e-07
1.0715e-07
1.0605e-07
1.05e-07
1.0402e-07
1.0309e-07
1.0222e-07
1.0141e-07
1.0066e-07
9.9955e-08
9.9306e-08
9.8705e-08
9.8153e-08
9.7646e-08
9.7182e-08
9.6759e-08
9.6376e-08
9.6029e-08
9.5716e-08
9.5437e-08
9.5187e-08
9.4967e-08
9.4774e-08
9.4605e-08
9.4459e-08
9.4335e-08
9.4232e-08
9.4159e-08
9.4119e-08
9.4073e-08
9.3875e-08
9.3388e-08
9.326e-08
9.5039e-08
9.9974e-08
1.0215e-07
7.9549e-08
6.1871e-08
7.4642e-08
9.3207e-08
1.4831e-07
1
1
1
1
1
1
1
1
1
1
1
1
1
1
1
1
1
1
1
1
1
1
1
1
1
1
1
1
1
1
1
1
1
1
1
1
1
1
1
1
1
1
1
1
1
1
1
1
1
1
1
1
1
1
1
1
1
1
1
1
1
1
1
1
1
1
1
1
1
1
1
1
1
1
1
1
1
1
1
1
1
1
1
1
1
1
1
1
1
1
1
1
1
1
1
1
1
1
1
1
1
1
1
1
1
1
1
1
1
1
1
1
1
1
1
1
1
1
1
1
1
1
1
1
1
1
1
1
1
1
1
1
1
1
1
1
1
1
1
1
1
1
1
1
1
1
1
1
1
1
1
1
1
1
1
1
1
1
1
1
1
1
1
1
1
1
1
1
1
1
1
1
1
1
1
1
1
1
1
1
1
1
1
1
1
1
1
1
1
1
1
1
1
1
1
1
1
1
1
1
1
1
1
1
1
1
1
1
1
1
1
1
1
1
1
1
1
1
1
1
1
1
1
1
1
1
1
1
1
1
1
1
1
1
1
1
1
1
1
1
1
1
1
1
1
1
1
1
1
1
1
1
1
1
1
1
1
1
1
1
1
1
1
1
1
1
1
1
1
1
1
1
0.99999
0.9999
0.99902
0.9802
0.63238
0.0079795
0.00012108
2.5883e-06
1.4302e-07
2.2923e-08
1.4175e-08
2.6798e-08
9.1707e-08
3.6981e-07
1.0287e-06
2.3061e-06
3.7664e-06
4.9645e-06
5.5437e-06
5.6627e-06
5.5806e-06
5.4189e-06
5.2657e-06
5.1149e-06
4.9774e-06
4.8215e-06
4.6986e-06
4.6098e-06
4.5441e-06
4.4865e-06
4.4134e-06
4.3345e-06
4.251e-06
4.191e-06
4.1298e-06
3.9833e-06
3.7709e-06
3.6989e-06
4.2685e-06
6.6273e-06
3.4573e-06
1.0578e-06
2.3971e-07
9.1649e-08
6.3073e-08
1.3523e-07
2.0833e-07
2.2989e-07
2.2341e-07
2.1233e-07
2.0392e-07
1.9711e-07
1.9088e-07
1.8512e-07
1.8004e-07
1.7564e-07
1.7179e-07
1.6832e-07
1.6507e-07
1.6197e-07
1.5898e-07
1.5607e-07
1.5324e-07
1.5049e-07
1.4782e-07
1.4523e-07
1.4271e-07
1.4026e-07
1.3788e-07
1.3557e-07
1.3331e-07
1.3112e-07
1.29e-07
1.2693e-07
1.2492e-07
1.2297e-07
1.2108e-07
1.1925e-07
1.1748e-07
1.1576e-07
1.1411e-07
1.1252e-07
1.1099e-07
1.0952e-07
1.0811e-07
1.0676e-07
1.0547e-07
1.0424e-07
1.0308e-07
1.0197e-07
1.0092e-07
9.9931e-08
9.8998e-08
9.8121e-08
9.7298e-08
9.6529e-08
9.5811e-08
9.5142e-08
9.4522e-08
9.3947e-08
9.3417e-08
9.2928e-08
9.248e-08
9.207e-08
9.1697e-08
9.1358e-08
9.1051e-08
9.0776e-08
9.053e-08
9.0311e-08
9.0118e-08
8.995e-08
8.9804e-08
8.9681e-08
8.9588e-08
8.953e-08
8.9469e-08
8.9265e-08
8.8787e-08
8.8654e-08
9.034e-08
9.5039e-08
9.7109e-08
7.5564e-08
5.8729e-08
7.0903e-08
8.8608e-08
1.4121e-07
1
1
1
1
1
1
1
1
1
1
1
1
1
1
1
1
1
1
1
1
1
1
1
1
1
1
1
1
1
1
1
1
1
1
1
1
1
1
1
1
1
1
1
1
1
1
1
1
1
1
1
1
1
1
1
1
1
1
1
1
1
1
1
1
1
1
1
1
1
1
1
1
1
1
1
1
1
1
1
1
1
1
1
1
1
1
1
1
1
1
1
1
1
1
1
1
1
1
1
1
1
1
1
1
1
1
1
1
1
1
1
1
1
1
1
1
1
1
1
1
1
1
1
1
1
1
1
1
1
1
1
1
1
1
1
1
1
1
1
1
1
1
1
1
1
1
1
1
1
1
1
1
1
1
1
1
1
1
1
1
1
1
1
1
1
1
1
1
1
1
1
1
1
1
1
1
1
1
1
1
1
1
1
1
1
1
1
1
1
1
1
1
1
1
1
1
1
1
1
1
1
1
1
1
1
1
1
1
1
1
1
1
1
1
1
1
1
1
1
1
1
1
1
1
1
1
1
1
1
1
1
1
1
1
1
1
1
1
1
1
1
1
1
1
1
1
1
1
1
1
1
1
1
1
1
1
1
1
1
1
1
1
1
1
1
1
1
1
1
1
1
1
1
0.99999
0.99997
0.99977
0.99771
0.96445
0.27204
0.0014185
1.0028e-05
2.5876e-07
3.274e-08
2.0839e-08
2.7187e-08
6.1326e-08
1.4677e-07
4.2376e-07
1.0675e-06
2.2217e-06
3.5786e-06
4.6914e-06
5.2922e-06
5.4553e-06
5.4077e-06
5.2682e-06
5.1207e-06
4.9597e-06
4.829e-06
4.7254e-06
4.6476e-06
4.5604e-06
4.4748e-06
4.3929e-06
4.3202e-06
4.2729e-06
4.2165e-06
4.0784e-06
3.8758e-06
3.7925e-06
4.2571e-06
6.2057e-06
4.3438e-06
1.7744e-06
4.3282e-07
1.3897e-07
7.0627e-08
9.4134e-08
1.3365e-07
1.752e-07
1.9515e-07
2.0297e-07
2.0494e-07
2.0246e-07
1.971e-07
1.9051e-07
1.841e-07
1.7841e-07
1.7357e-07
1.6942e-07
1.6577e-07
1.6246e-07
1.5935e-07
1.5637e-07
1.5349e-07
1.507e-07
1.4797e-07
1.4533e-07
1.4275e-07
1.4025e-07
1.3782e-07
1.3546e-07
1.3317e-07
1.3094e-07
1.2877e-07
1.2667e-07
1.2463e-07
1.2265e-07
1.2073e-07
1.1887e-07
1.1707e-07
1.1534e-07
1.1366e-07
1.1204e-07
1.1048e-07
1.0899e-07
1.0755e-07
1.0617e-07
1.0486e-07
1.036e-07
1.024e-07
1.0127e-07
1.0018e-07
9.9162e-08
9.8195e-08
9.7283e-08
9.6425e-08
9.5618e-08
9.4862e-08
9.4156e-08
9.3496e-08
9.2882e-08
9.2312e-08
9.1784e-08
9.1297e-08
9.0847e-08
9.0435e-08
9.0058e-08
8.9715e-08
8.9404e-08
8.9123e-08
8.8872e-08
8.8648e-08
8.8451e-08
8.8277e-08
8.8129e-08
8.8014e-08
8.7934e-08
8.7854e-08
8.7636e-08
8.7152e-08
8.7008e-08
8.8654e-08
9.326e-08
9.5285e-08
7.412e-08
5.7589e-08
6.9554e-08
8.6955e-08
1.3868e-07
1
1
1
1
1
1
1
1
1
1
1
1
1
1
1
1
1
1
1
1
1
1
1
1
1
1
1
1
1
1
1
1
1
1
1
1
1
1
1
1
1
1
1
1
1
1
1
1
1
1
1
1
1
1
1
1
1
1
1
1
1
1
1
1
1
1
1
1
1
1
1
1
1
1
1
1
1
1
1
1
1
1
1
1
1
1
1
1
1
1
1
1
1
1
1
1
1
1
1
1
1
1
1
1
1
1
1
1
1
1
1
1
1
1
1
1
1
1
1
1
1
1
1
1
1
1
1
1
1
1
1
1
1
1
1
1
1
1
1
1
1
1
1
1
1
1
1
1
1
1
1
1
1
1
1
1
1
1
1
1
1
1
1
1
1
1
1
1
1
1
1
1
1
1
1
1
1
1
1
1
1
1
1
1
1
1
1
1
1
1
1
1
1
1
1
1
1
1
1
1
1
1
1
1
1
1
1
1
1
1
1
1
1
1
1
1
1
1
1
1
1
1
1
1
1
1
1
1
1
1
1
1
1
1
1
1
1
1
1
1
1
1
1
1
1
1
1
1
1
1
1
1
1
1
1
1
1
1
1
1
1
1
1
1
1
1
1
1
1
1
1
1
1
1
0.99999
0.99999
0.99997
0.99981
0.9974
0.93188
0.03591
0.00021342
3.8401e-06
3.3575e-07
5.8075e-08
3.0966e-08
2.8918e-08
5.4789e-08
1.3962e-07
4.0277e-07
1.0619e-06
2.2241e-06
3.6089e-06
4.6463e-06
5.1988e-06
5.3354e-06
5.2873e-06
5.1641e-06
5.0416e-06
4.9259e-06
4.8178e-06
4.7031e-06
4.6071e-06
4.521e-06
4.4554e-06
4.4108e-06
4.3586e-06
4.2404e-06
4.06e-06
3.9551e-06
4.2518e-06
5.6057e-06
5.2229e-06
3.1538e-06
1.1679e-06
3.7503e-07
1.4765e-07
1.0727e-07
1.0223e-07
1.1686e-07
1.2955e-07
1.6181e-07
1.8537e-07
1.9826e-07
2.019e-07
1.992e-07
1.9355e-07
1.87e-07
1.8078e-07
1.7529e-07
1.7063e-07
1.6662e-07
1.6311e-07
1.599e-07
1.5689e-07
1.5399e-07
1.5118e-07
1.4844e-07
1.4577e-07
1.4317e-07
1.4065e-07
1.3819e-07
1.3581e-07
1.335e-07
1.3125e-07
1.2907e-07
1.2696e-07
1.2491e-07
1.2292e-07
1.2099e-07
1.1913e-07
1.1733e-07
1.1559e-07
1.1391e-07
1.123e-07
1.1074e-07
1.0925e-07
1.0782e-07
1.0645e-07
1.0513e-07
1.0388e-07
1.0269e-07
1.0155e-07
1.0048e-07
9.9454e-08
9.8487e-08
9.7574e-08
9.6713e-08
9.5902e-08
9.5141e-08
9.4428e-08
9.3761e-08
9.3138e-08
9.2558e-08
9.2019e-08
9.152e-08
9.1059e-08
9.0635e-08
9.0246e-08
8.9891e-08
8.9569e-08
8.9278e-08
8.9017e-08
8.8785e-08
8.8579e-08
8.8401e-08
8.8258e-08
8.8154e-08
8.8052e-08
8.7813e-08
8.7311e-08
8.7152e-08
8.8788e-08
9.3389e-08
9.5405e-08
7.4208e-08
5.7656e-08
6.9636e-08
8.7057e-08
1.3886e-07
1
1
1
1
1
1
1
1
1
1
1
1
1
1
1
1
1
1
1
1
1
1
1
1
1
1
1
1
1
1
1
1
1
1
1
1
1
1
1
1
1
1
1
1
1
1
1
1
1
1
1
1
1
1
1
1
1
1
1
1
1
1
1
1
1
1
1
1
1
1
1
1
1
1
1
1
1
1
1
1
1
1
1
1
1
1
1
1
1
1
1
1
1
1
1
1
1
1
1
1
1
1
1
1
1
1
1
1
1
1
1
1
1
1
1
1
1
1
1
1
1
1
1
1
1
1
1
1
1
1
1
1
1
1
1
1
1
1
1
1
1
1
1
1
1
1
1
1
1
1
1
1
1
1
1
1
1
1
1
1
1
1
1
1
1
1
1
1
1
1
1
1
1
1
1
1
1
1
1
1
1
1
1
1
1
1
1
1
1
1
1
1
1
1
1
1
1
1
1
1
1
1
1
1
1
1
1
1
1
1
1
1
1
1
1
1
1
1
1
1
1
1
1
1
1
1
1
1
1
1
1
1
1
1
1
1
1
1
1
1
1
1
1
1
1
1
1
1
1
1
1
1
1
1
1
1
1
1
1
1
1
1
1
1
1
1
1
1
1
1
1
0.99999
0.99999
1
1
1
1
1
0.99998
0.99975
0.9928
0.81496
0.01497
0.00020194
3.9411e-06
2.3598e-07
3.625e-08
1.8613e-08
2.1747e-08
4.7414e-08
1.4271e-07
4.3703e-07
1.1641e-06
2.3388e-06
3.6617e-06
4.6093e-06
5.1158e-06
5.2712e-06
5.2507e-06
5.1504e-06
5.0214e-06
4.8793e-06
4.7619e-06
4.6496e-06
4.575e-06
4.5291e-06
4.4864e-06
4.3996e-06
4.2512e-06
4.1177e-06
4.23e-06
4.9956e-06
5.72e-06
5.0117e-06
2.7986e-06
1.3764e-06
4.8436e-07
2.6038e-07
1.615e-07
1.2748e-07
1.0154e-07
1.1119e-07
1.2527e-07
1.5929e-07
1.8338e-07
1.9569e-07
1.9883e-07
1.9598e-07
1.9042e-07
1.8404e-07
1.7806e-07
1.7284e-07
1.6842e-07
1.6465e-07
1.6131e-07
1.5823e-07
1.5529e-07
1.5245e-07
1.4967e-07
1.4696e-07
1.4432e-07
1.4176e-07
1.3926e-07
1.3684e-07
1.3449e-07
1.3222e-07
1.3001e-07
1.2786e-07
1.2579e-07
1.2378e-07
1.2183e-07
1.1995e-07
1.1814e-07
1.1638e-07
1.1469e-07
1.1307e-07
1.115e-07
1.1e-07
1.0856e-07
1.0718e-07
1.0586e-07
1.0461e-07
1.0341e-07
1.0226e-07
1.0118e-07
1.0015e-07
9.917e-08
9.8247e-08
9.7375e-08
9.6553e-08
9.5779e-08
9.5053e-08
9.4371e-08
9.3734e-08
9.3139e-08
9.2586e-08
9.2072e-08
9.1597e-08
9.1159e-08
9.0757e-08
9.039e-08
9.0056e-08
8.9755e-08
8.9485e-08
8.9244e-08
8.9033e-08
8.886e-08
8.8729e-08
8.8601e-08
8.8339e-08
8.7815e-08
8.7638e-08
8.9266e-08
9.3876e-08
9.5889e-08
7.4582e-08
5.7947e-08
6.998e-08
8.7481e-08
1.3951e-07
1
1
1
1
1
1
1
1
1
1
1
1
1
1
1
1
1
1
1
1
1
1
1
1
1
1
1
1
1
1
1
1
1
1
1
1
1
1
1
1
1
1
1
1
1
1
1
1
1
1
1
1
1
1
1
1
1
1
1
1
1
1
1
1
1
1
1
1
1
1
1
1
1
1
1
1
1
1
1
1
1
1
1
1
1
1
1
1
1
1
1
1
1
1
1
1
1
1
1
1
1
1
1
1
1
1
1
1
1
1
1
1
1
1
1
1
1
1
1
1
1
1
1
1
1
1
1
1
1
1
1
1
1
1
1
1
1
1
1
1
1
1
1
1
1
1
1
1
1
1
1
1
1
1
1
1
1
1
1
1
1
1
1
1
1
1
1
1
1
1
1
1
1
1
1
1
1
1
1
1
1
1
1
1
1
1
1
1
1
1
1
1
1
1
1
1
1
1
1
1
1
1
1
1
1
1
1
1
1
1
1
1
1
1
1
1
1
1
1
1
1
1
1
1
1
1
1
1
1
1
1
1
1
1
1
1
1
1
1
1
1
1
1
1
1
1
1
1
1
1
1
1
1
1
1
1
1
1
1
1
1
1
1
1
1
1
1
1
1
0.99999
0.99999
0.99999
0.99999
1
1
1
1
1
1
1
0.99996
0.99943
0.98815
0.75869
0.0087244
7.4484e-05
1.2523e-06
7.4645e-08
1.6946e-08
1.2576e-08
2.1707e-08
5.6715e-08
1.8078e-07
5.1552e-07
1.3031e-06
2.4906e-06
3.7639e-06
4.6475e-06
5.0915e-06
5.2246e-06
5.1594e-06
5.042e-06
4.9313e-06
4.7986e-06
4.7025e-06
4.6352e-06
4.5724e-06
4.4921e-06
4.3757e-06
4.2393e-06
4.219e-06
4.5499e-06
5.6403e-06
6.5278e-06
5.3538e-06
3.9511e-06
1.9864e-06
1.0396e-06
4.5319e-07
2.915e-07
1.6122e-07
1.2311e-07
9.8919e-08
1.0954e-07
1.2373e-07
1.5682e-07
1.8005e-07
1.9194e-07
1.9501e-07
1.923e-07
1.8695e-07
1.8085e-07
1.7516e-07
1.7024e-07
1.661e-07
1.6254e-07
1.5934e-07
1.5633e-07
1.5344e-07
1.5062e-07
1.4788e-07
1.452e-07
1.426e-07
1.4006e-07
1.376e-07
1.3522e-07
1.329e-07
1.3066e-07
1.2849e-07
1.2639e-07
1.2436e-07
1.2239e-07
1.2049e-07
1.1866e-07
1.1689e-07
1.1519e-07
1.1355e-07
1.1197e-07
1.1046e-07
1.0901e-07
1.0762e-07
1.063e-07
1.0503e-07
1.0382e-07
1.0267e-07
1.0157e-07
1.0053e-07
9.9542e-08
9.8606e-08
9.7722e-08
9.6887e-08
9.61e-08
9.536e-08
9.4664e-08
9.4013e-08
9.3404e-08
9.2837e-08
9.231e-08
9.1823e-08
9.1373e-08
9.096e-08
9.0583e-08
9.0241e-08
8.9932e-08
8.9654e-08
8.941e-08
8.9205e-08
8.9044e-08
8.889e-08
8.8603e-08
8.8055e-08
8.7857e-08
8.9472e-08
9.4075e-08
9.6078e-08
7.4721e-08
5.8051e-08
7.0099e-08
8.7624e-08
1.3973e-07
1
1
1
1
1
1
1
1
1
1
1
1
1
1
1
1
1
1
1
1
1
1
1
1
1
1
1
1
1
1
1
1
1
1
1
1
1
1
1
1
1
1
1
1
1
1
1
1
1
1
1
1
1
1
1
1
1
1
1
1
1
1
1
1
1
1
1
1
1
1
1
1
1
1
1
1
1
1
1
1
1
1
1
1
1
1
1
1
1
1
1
1
1
1
1
1
1
1
1
1
1
1
1
1
1
1
1
1
1
1
1
1
1
1
1
1
1
1
1
1
1
1
1
1
1
1
1
1
1
1
1
1
1
1
1
1
1
1
1
1
1
1
1
1
1
1
1
1
1
1
1
1
1
1
1
1
1
1
1
1
1
1
1
1
1
1
1
1
1
1
1
1
1
1
1
1
1
1
1
1
1
1
1
1
1
1
1
1
1
1
1
1
1
1
1
1
1
1
1
1
1
1
1
1
1
1
1
1
1
1
1
1
1
1
1
1
1
1
1
1
1
1
1
1
1
1
1
1
1
1
1
1
1
1
1
1
1
1
1
1
1
1
1
1
1
1
1
1
0.99999
0.99999
0.99999
1
1
1
1
1
1
1
1
1
1
1
1
1
1
1
1
0.99999
0.99999
0.99999
0.99999
0.99999
1
1
1
1
1
1
1
1
1
0.99999
0.99993
0.99912
0.97828
0.38155
0.0015642
1.317e-05
3.658e-07
4.0971e-08
1.7231e-08
1.7311e-08
3.4058e-08
7.962e-08
2.3345e-07
6.1785e-07
1.4876e-06
2.6932e-06
3.8971e-06
4.69e-06
5.0326e-06
5.1291e-06
5.0949e-06
4.9598e-06
4.8445e-06
4.7459e-06
4.6679e-06
4.5832e-06
4.4873e-06
4.345e-06
4.2353e-06
4.2758e-06
4.6757e-06
5.6749e-06
6.1251e-06
6.4394e-06
4.8558e-06
3.4528e-06
1.7965e-06
1.0884e-06
4.4809e-07
2.83e-07
1.5769e-07
1.2124e-07
9.7605e-08
1.079e-07
1.2193e-07
1.5493e-07
1.784e-07
1.904e-07
1.9318e-07
1.8993e-07
1.8414e-07
1.7792e-07
1.7238e-07
1.6772e-07
1.6381e-07
1.6038e-07
1.5724e-07
1.5426e-07
1.514e-07
1.4861e-07
1.459e-07
1.4326e-07
1.4069e-07
1.3819e-07
1.3577e-07
1.3343e-07
1.3115e-07
1.2896e-07
1.2683e-07
1.2477e-07
1.2279e-07
1.2087e-07
1.1902e-07
1.1723e-07
1.1551e-07
1.1386e-07
1.1227e-07
1.1075e-07
1.0929e-07
1.0789e-07
1.0655e-07
1.0527e-07
1.0405e-07
1.0289e-07
1.0178e-07
1.0073e-07
9.973e-08
9.8782e-08
9.7884e-08
9.7036e-08
9.6235e-08
9.5481e-08
9.4772e-08
9.4108e-08
9.3486e-08
9.2907e-08
9.2369e-08
9.187e-08
9.1411e-08
9.099e-08
9.0605e-08
9.0256e-08
8.9941e-08
8.9661e-08
8.9423e-08
8.9231e-08
8.9048e-08
8.8734e-08
8.816e-08
8.794e-08
8.9535e-08
9.4123e-08
9.6109e-08
7.4734e-08
5.8053e-08
7.0094e-08
8.7612e-08
1.397e-07
1
1
1
1
1
1
1
1
1
1
1
1
1
1
1
1
1
1
1
1
1
1
1
1
1
1
1
1
1
1
1
1
1
1
1
1
1
1
1
1
1
1
1
1
1
1
1
1
1
1
1
1
1
1
1
1
1
1
1
1
1
1
1
1
1
1
1
1
1
1
1
1
1
1
1
1
1
1
1
1
1
1
1
1
1
1
1
1
1
1
1
1
1
1
1
1
1
1
1
1
1
1
1
1
1
1
1
1
1
1
1
1
1
1
1
1
1
1
1
1
1
1
1
1
1
1
1
1
1
1
1
1
1
1
1
1
1
1
1
1
1
1
1
1
1
1
1
1
1
1
1
1
1
1
1
1
1
1
1
1
1
1
1
1
1
1
1
1
1
1
1
1
1
1
1
1
1
1
1
1
1
1
1
1
1
1
1
1
1
1
1
1
1
1
1
1
1
1
1
1
1
1
1
1
1
1
1
1
1
1
1
1
1
1
1
1
1
1
1
1
1
1
1
1
1
1
1
1
1
1
1
1
1
1
1
1
1
1
1
1
1
1
0.99999
0.99999
0.99999
0.99999
0.99999
0.99999
0.99999
0.99999
0.99999
0.99999
0.99999
0.99999
0.99999
0.99999
0.99999
0.99999
1
1
1
1
1
1
1
1
0.99999
0.99999
0.99999
0.99999
0.99999
0.99999
1
1
1
1
1
1
1
1
1
1
1
0.99999
0.99986
0.99757
0.93014
0.053268
0.00036018
6.4222e-06
3.9939e-07
6.5154e-08
3.0834e-08
2.6377e-08
4.5367e-08
9.8371e-08
2.8282e-07
7.5259e-07
1.669e-06
2.8628e-06
3.9852e-06
4.7143e-06
5.0481e-06
5.0877e-06
5.0194e-06
4.9051e-06
4.7989e-06
4.6924e-06
4.6056e-06
4.4763e-06
4.3482e-06
4.2377e-06
4.281e-06
4.5514e-06
5.2142e-06
6.4782e-06
6.917e-06
6.9509e-06
4.9965e-06
3.4395e-06
1.7551e-06
1.0571e-06
4.3824e-07
2.777e-07
1.5531e-07
1.2026e-07
9.8023e-08
1.1021e-07
1.2626e-07
1.6098e-07
1.8383e-07
1.9316e-07
1.9284e-07
1.8765e-07
1.8117e-07
1.7507e-07
1.6986e-07
1.6544e-07
1.6162e-07
1.5823e-07
1.5511e-07
1.5217e-07
1.4934e-07
1.4659e-07
1.4392e-07
1.4131e-07
1.3878e-07
1.3633e-07
1.3395e-07
1.3165e-07
1.2942e-07
1.2727e-07
1.2518e-07
1.2318e-07
1.2124e-07
1.1937e-07
1.1757e-07
1.1583e-07
1.1416e-07
1.1256e-07
1.1103e-07
1.0955e-07
1.0814e-07
1.0679e-07
1.055e-07
1.0426e-07
1.0309e-07
1.0196e-07
1.009e-07
9.9884e-08
9.8922e-08
9.801e-08
9.7147e-08
9.6333e-08
9.5565e-08
9.4843e-08
9.4166e-08
9.3532e-08
9.2942e-08
9.2393e-08
9.1886e-08
9.1419e-08
9.099e-08
9.0599e-08
9.0244e-08
8.9927e-08
8.9654e-08
8.9429e-08
8.9214e-08
8.8871e-08
8.8269e-08
8.8024e-08
8.9597e-08
9.4166e-08
9.6133e-08
7.4738e-08
5.8046e-08
7.0075e-08
8.758e-08
1.3964e-07
1
1
1
1
1
1
1
1
1
1
1
1
1
1
1
1
1
1
1
1
1
1
1
1
1
1
1
1
1
1
1
1
1
1
1
1
1
1
1
1
1
1
1
1
1
1
1
1
1
1
1
1
1
1
1
1
1
1
1
1
1
1
1
1
1
1
1
1
1
1
1
1
1
1
1
1
1
1
1
1
1
1
1
1
1
1
1
1
1
1
1
1
1
1
1
1
1
1
1
1
1
1
1
1
1
1
1
1
1
1
1
1
1
1
1
1
1
1
1
1
1
1
1
1
1
1
1
1
1
1
1
1
1
1
1
1
1
1
1
1
1
1
1
1
1
1
1
1
1
1
1
1
1
1
1
1
1
1
1
1
1
1
1
1
1
1
1
1
1
1
1
1
1
1
1
1
1
1
1
1
1
1
1
1
1
1
1
1
1
1
1
1
1
1
1
1
1
1
1
1
1
1
1
1
1
1
1
1
1
1
1
1
1
1
1
1
1
1
1
1
1
1
1
1
1
1
1
1
1
1
1
1
1
1
1
1
1
0.99999
0.99999
0.99999
0.99999
0.99999
0.99999
0.99999
0.99999
0.99999
0.99999
0.99999
0.99999
0.99999
0.99999
0.99999
0.99999
0.99999
0.99999
0.99999
0.99999
0.99999
0.99999
1
1
1
1
1
1
0.99999
0.99999
0.99999
0.99999
0.99999
0.99999
1
1
1
1
1
1
1
1
1
1
1
1
1
0.99999
0.99997
0.99963
0.99318
0.84845
0.025636
0.00033311
8.5186e-06
5.8302e-07
8.7266e-08
3.951e-08
3.1875e-08
5.4329e-08
1.2666e-07
3.3756e-07
8.6069e-07
1.8286e-06
3.0457e-06
4.1465e-06
4.7691e-06
5.025e-06
5.0444e-06
4.982e-06
4.8675e-06
4.7609e-06
4.6233e-06
4.4902e-06
4.3368e-06
4.2396e-06
4.2075e-06
4.3268e-06
4.6798e-06
5.3545e-06
6.5189e-06
6.833e-06
6.8008e-06
4.8611e-06
3.3531e-06
1.7186e-06
1.0353e-06
4.3148e-07
2.7789e-07
1.6071e-07
1.3024e-07
1.1033e-07
1.2566e-07
1.4142e-07
1.7298e-07
1.8918e-07
1.9302e-07
1.9005e-07
1.8441e-07
1.783e-07
1.7257e-07
1.6749e-07
1.6314e-07
1.5937e-07
1.5605e-07
1.5299e-07
1.5011e-07
1.4733e-07
1.4462e-07
1.4199e-07
1.3943e-07
1.3694e-07
1.3453e-07
1.3219e-07
1.2993e-07
1.2775e-07
1.2564e-07
1.2361e-07
1.2165e-07
1.1976e-07
1.1794e-07
1.1618e-07
1.145e-07
1.1288e-07
1.1133e-07
1.0984e-07
1.0841e-07
1.0704e-07
1.0573e-07
1.0449e-07
1.0329e-07
1.0216e-07
1.0107e-07
1.0004e-07
9.9067e-08
9.8139e-08
9.7262e-08
9.6433e-08
9.5651e-08
9.4917e-08
9.4227e-08
9.3583e-08
9.2982e-08
9.2425e-08