/*--------------------------------*- C++ -*----------------------------------*\
| =========                 |                                                 |
| \\      /  F ield         | OpenFOAM: The Open Source CFD Toolbox           |
|  \\    /   O peration     | Version:  5.x                                   |
|   \\  /    A nd           | Web:      www.OpenFOAM.org                      |
|    \\/     M anipulation  |                                                 |
\*---------------------------------------------------------------------------*/
FoamFile
{
    version     2.0;
    format      ascii;
    class       volScalarField;
    location    "75";
    object      gamma;
}
// * * * * * * * * * * * * * * * * * * * * * * * * * * * * * * * * * * * * * //

dimensions      [0 0 0 0 0 0 0];

internalField   nonuniform List<scalar> 
86400
(
0.0004504
0.0005038
0.0006258
0.0008462
0.001244
0.001724
0.002273
0.003106
0.004833
0.007709
0.0129
0.02062
0.03277
0.04503
0.05934
0.06765
0.07149
0.06309
0.05069
0.03944
0.03082
0.02528
0.02312
0.02227
0.02238
0.02554
0.02599
0.02607
0.02475
0.02398
0.02326
0.02412
0.02517
0.02627
0.02756
0.02977
0.02871
0.0259
0.0212
0.01876
0.01709
0.01743
0.01684
0.01553
0.01541
0.01639
0.01872
0.02028
0.0212
0.02023
0.01994
0.0201
0.02044
0.02082
0.02084
0.02167
0.02267
0.02342
0.0238
0.02426
0.02338
0.02353
0.02237
0.02219
0.02371
0.02649
0.02838
0.02985
0.02814
0.02697
0.0282
0.03072
0.03137
0.02976
0.02871
0.02791
0.02692
0.02905
0.03258
0.036
0.04011
0.04277
0.04296
0.04418
0.0462
0.0461
0.04629
0.04611
0.04703
0.04765
0.04598
0.04875
0.05327
0.06218
0.06729
0.06934
0.06368
0.06062
0.05902
0.05834
0.05826
0.05385
0.04832
0.04088
0.0345
0.03409
0.04012
0.04999
0.05328
0.05064
0.04156
0.03515
0.03288
0.03266
0.03219
0.03164
0.0312
0.03086
0.03094
0.03113
0.03124
0.03113
0.03074
0.03002
0.02956
0.0294
0.02897
0.02844
0.02781
0.027
0.02589
0.02695
0.02865
0.03096
0.0333
0.03576
0.03747
0.03921
0.03106
0.02118
0.01581
0.01417
0.01618
0.01911
0.0202
0.01784
0.01805
0.01901
0.02038
0.02135
0.02138
0.02304
0.02878
0.03335
0.03529
0.03653
0.03983
0.06383
0.8377
0.9917
0.0005286
0.0005438
0.0006411
0.0008211
0.001258
0.001931
0.002856
0.004368
0.007231
0.0119
0.02084
0.0328
0.04796
0.06096
0.07496
0.08443
0.09342
0.08933
0.07716
0.06347
0.05188
0.04512
0.0419
0.04026
0.04032
0.04154
0.04183
0.04164
0.04113
0.0397
0.0383
0.03871
0.0395
0.04047
0.04181
0.04453
0.04399
0.04154
0.03716
0.03427
0.03145
0.03082
0.02966
0.02752
0.02642
0.02704
0.02821
0.02926
0.03005
0.02951
0.0299
0.03098
0.03243
0.03347
0.03206
0.0309
0.03017
0.03067
0.03191
0.03352
0.03216
0.03249
0.03121
0.03184
0.03569
0.04351
0.04735
0.05153
0.05083
0.05119
0.05404
0.05724
0.05411
0.04817
0.04353
0.04271
0.04502
0.05105
0.05711
0.06068
0.0659
0.07083
0.07496
0.07899
0.08332
0.08409
0.08534
0.08529
0.08758
0.0902
0.09
0.09502
0.1005
0.1053
0.1063
0.1034
0.09384
0.08809
0.08489
0.08299
0.08388
0.0826
0.08094
0.07505
0.06535
0.06204
0.06854
0.07852
0.08549
0.08418
0.07081
0.06038
0.05605
0.05575
0.05523
0.05469
0.05446
0.05441
0.05533
0.05649
0.05755
0.05805
0.05796
0.05693
0.05632
0.0562
0.05525
0.05404
0.05258
0.051
0.0491
0.05117
0.05449
0.06044
0.06543
0.06788
0.06727
0.06574
0.05396
0.04041
0.03579
0.03334
0.0348
0.03959
0.04152
0.03901
0.04041
0.04349
0.0473
0.04813
0.04685
0.04904
0.05928
0.07538
0.09594
0.129
0.1844
0.3844
0.8237
0.9662
0.0007059
0.0006889
0.0007729
0.0009727
0.001575
0.002637
0.004235
0.007062
0.01186
0.01991
0.03401
0.05238
0.07632
0.09949
0.1155
0.1226
0.1294
0.1194
0.1046
0.08861
0.07229
0.06327
0.0612
0.06018
0.0596
0.06347
0.06655
0.07008
0.07469
0.07588
0.07385
0.07489
0.07274
0.06892
0.06486
0.06317
0.06028
0.05763
0.05303
0.05066
0.04837
0.04825
0.04626
0.04415
0.0424
0.04319
0.04432
0.04541
0.0464
0.04688
0.04437
0.04098
0.03797
0.03566
0.03257
0.0326
0.03295
0.03475
0.03911
0.04322
0.04331
0.0446
0.04411
0.04737
0.0554
0.06678
0.07583
0.0889
0.09542
0.1024
0.1078
0.1066
0.09407
0.08219
0.07596
0.07923
0.08716
0.09837
0.1081
0.115
0.1231
0.1312
0.1383
0.1458
0.1546
0.1561
0.1593
0.161
0.1621
0.1621
0.1574
0.1559
0.1539
0.1566
0.1557
0.1517
0.1427
0.137
0.1315
0.1282
0.1307
0.1335
0.1372
0.1329
0.1218
0.116
0.122
0.1348
0.1468
0.1454
0.1289
0.1149
0.1071
0.1065
0.1061
0.106
0.103
0.09829
0.09468
0.09235
0.0923
0.09394
0.09432
0.09311
0.09255
0.09277
0.0916
0.08989
0.08718
0.08503
0.08269
0.08579
0.09042
0.09718
0.1052
0.1092
0.1093
0.1074
0.09662
0.0831
0.079
0.07662
0.07947
0.08631
0.08956
0.08547
0.08548
0.08881
0.09528
0.09779
0.1014
0.1114
0.1476
0.2112
0.3284
0.5108
0.6583
0.8001
0.9136
0.9666
0.001063
0.001029
0.001152
0.001505
0.002603
0.004655
0.007737
0.01302
0.02155
0.03585
0.05374
0.05861
0.06559
0.0728
0.07965
0.09101
0.1096
0.08284
0.0588
0.04303
0.03194
0.02761
0.03249
0.03775
0.04155
0.05027
0.06087
0.07176
0.0871
0.09947
0.1001
0.1063
0.1051
0.1004
0.09289
0.08739
0.08257
0.08169
0.07888
0.08057
0.08316
0.08872
0.09302
0.09505
0.08401
0.07235
0.06008
0.05058
0.04518
0.04533
0.04054
0.03564
0.03354
0.03188
0.0291
0.02956
0.03027
0.03413
0.04409
0.05467
0.05963
0.06395
0.06713
0.07438
0.08892
0.1081
0.1284
0.1671
0.2131
0.2672
0.3048
0.2908
0.2453
0.2056
0.1774
0.1815
0.1986
0.2175
0.2284
0.244
0.2563
0.2707
0.2903
0.3052
0.3121
0.312
0.3161
0.3204
0.328
0.3407
0.3496
0.3509
0.3368
0.3303
0.3148
0.2998
0.2868
0.2782
0.2655
0.2594
0.2605
0.2657
0.2843
0.2864
0.2697
0.2492
0.2394
0.2471
0.2573
0.2586
0.2377
0.2191
0.2049
0.2037
0.2048
0.2087
0.2032
0.1931
0.1832
0.1759
0.1723
0.1762
0.1777
0.1765
0.1766
0.1781
0.1773
0.1754
0.1728
0.1704
0.168
0.174
0.1832
0.1975
0.2061
0.2005
0.1882
0.1732
0.1679
0.172
0.1795
0.1828
0.1877
0.1934
0.2036
0.2075
0.213
0.2269
0.2535
0.2761
0.3205
0.3871
0.4966
0.6156
0.739
0.8415
0.9089
0.9544
0.9803
0.9914
0.001858
0.001982
0.002377
0.003377
0.005963
0.01034
0.01545
0.02446
0.03674
0.0517
0.05622
0.03833
0.02872
0.02946
0.03506
0.04611
0.06433
0.04068
0.02418
0.01753
0.01449
0.01328
0.0181
0.02105
0.02408
0.0349
0.0553
0.08449
0.1193
0.1332
0.1097
0.096
0.08262
0.07435
0.07127
0.06764
0.06199
0.0676
0.07845
0.09724
0.1047
0.09893
0.07928
0.06539
0.04957
0.03915
0.0275
0.02294
0.02262
0.02791
0.03017
0.03178
0.03102
0.03103
0.02917
0.02919
0.0297
0.03428
0.04986
0.06966
0.08565
0.1003
0.1166
0.1313
0.1491
0.1663
0.2032
0.2828
0.4123
0.5173
0.56
0.5313
0.4733
0.4111
0.3605
0.3531
0.3753
0.3932
0.4114
0.4485
0.4656
0.4771
0.4891
0.4964
0.4975
0.4977
0.4993
0.5018
0.5114
0.5257
0.5329
0.5405
0.536
0.5363
0.5298
0.5288
0.5215
0.516
0.5039
0.4926
0.4792
0.4647
0.465
0.4597
0.4411
0.4294
0.4168
0.4117
0.4131
0.4216
0.3986
0.3793
0.3587
0.3548
0.3399
0.3241
0.2918
0.2588
0.2287
0.2178
0.2097
0.2114
0.2109
0.2095
0.2106
0.214
0.2163
0.2182
0.2199
0.2219
0.2237
0.2276
0.2324
0.2441
0.246
0.2397
0.2348
0.2359
0.2453
0.271
0.2946
0.3074
0.3189
0.3378
0.3718
0.3936
0.4164
0.4422
0.4931
0.5443
0.6167
0.6873
0.7582
0.8293
0.8957
0.9424
0.9702
0.9853
0.9929
0.9964
0.003
0.00374
0.005074
0.008257
0.01457
0.02231
0.02843
0.03788
0.04833
0.05479
0.04498
0.02135
0.01036
0.008779
0.01224
0.01982
0.03096
0.02097
0.01264
0.01026
0.01091
0.01131
0.01699
0.01402
0.01176
0.01341
0.02008
0.03349
0.06097
0.06735
0.05236
0.04358
0.03802
0.03616
0.04036
0.04062
0.033
0.0318
0.03532
0.03515
0.02831
0.0222
0.014
0.009658
0.006961
0.004173
0.001782
0.001317
0.001456
0.002456
0.003957
0.006643
0.009405
0.01242
0.01393
0.01311
0.01193
0.01368
0.0243
0.04281
0.06461
0.08795
0.1043
0.1224
0.1427
0.1702
0.2436
0.4014
0.5626
0.6632
0.6993
0.6773
0.6371
0.5921
0.5494
0.5427
0.5568
0.5765
0.598
0.6275
0.6411
0.6494
0.6541
0.6562
0.6535
0.6501
0.6487
0.6497
0.6567
0.6692
0.6844
0.6934
0.6956
0.6991
0.6987
0.6975
0.694
0.6905
0.6831
0.6728
0.6561
0.6344
0.618
0.6062
0.5937
0.5863
0.565
0.5528
0.5415
0.5312
0.5
0.4754
0.4489
0.4356
0.4064
0.377
0.3319
0.2933
0.2615
0.248
0.233
0.2273
0.2221
0.2203
0.2225
0.2282
0.2363
0.2466
0.258
0.2698
0.2796
0.2886
0.3013
0.3272
0.3415
0.3528
0.3573
0.3815
0.4108
0.4535
0.4809
0.496
0.5125
0.5361
0.5699
0.5971
0.6268
0.6607
0.7041
0.7502
0.8011
0.8443
0.8848
0.9229
0.9548
0.9758
0.9873
0.9931
0.9961
0.9977
0.004779
0.006692
0.009919
0.01671
0.02765
0.03769
0.04309
0.05048
0.05884
0.05319
0.03251
0.01195
0.004072
0.003471
0.004308
0.008524
0.01613
0.01611
0.01246
0.01398
0.0191
0.0194
0.02569
0.01486
0.009697
0.008616
0.01125
0.01699
0.03391
0.03795
0.02958
0.02248
0.02104
0.02275
0.02581
0.02337
0.01504
0.01211
0.01416
0.01322
0.008527
0.004985
0.002237
0.001192
0.0008245
0.0003317
0.0001079
7.76e-05
0.0001037
0.0002781
0.0007362
0.001854
0.003911
0.007531
0.01017
0.009296
0.007675
0.008451
0.01611
0.03133
0.05632
0.08513
0.1056
0.1379
0.17
0.2125
0.3238
0.5129
0.6487
0.7298
0.7631
0.7515
0.7313
0.7068
0.6837
0.6797
0.6888
0.7023
0.7166
0.7342
0.7433
0.7487
0.7534
0.7575
0.7611
0.7631
0.7648
0.7662
0.7719
0.7801
0.7884
0.7949
0.7986
0.8015
0.8033
0.8072
0.8097
0.8076
0.7995
0.7844
0.7592
0.7299
0.7122
0.704
0.7014
0.7053
0.7009
0.69
0.6745
0.6581
0.6293
0.6013
0.5714
0.5508
0.5172
0.4838
0.4336
0.3954
0.3601
0.3455
0.3242
0.3105
0.3008
0.2988
0.3042
0.3156
0.3315
0.3516
0.3745
0.3963
0.4141
0.4304
0.4505
0.4825
0.5064
0.5373
0.5717
0.606
0.6364
0.6666
0.684
0.697
0.7121
0.7311
0.7553
0.7778
0.8
0.8234
0.8484
0.873
0.8973
0.9211
0.9442
0.9645
0.9796
0.9887
0.9932
0.9956
0.997
0.9978
0.008888
0.01269
0.01857
0.02988
0.04572
0.05615
0.06038
0.06564
0.0626
0.04208
0.02132
0.007068
0.002272
0.00194
0.002608
0.006006
0.01432
0.02152
0.02349
0.03356
0.04212
0.04132
0.0492
0.02957
0.0179
0.01117
0.01255
0.01485
0.02478
0.027
0.02276
0.02134
0.02034
0.0211
0.02004
0.0151
0.008376
0.006832
0.008704
0.00604
0.002981
0.001172
0.0004904
0.0002246
0.0001702
6.119e-05
2.067e-05
1.794e-05
3.494e-05
0.0001427
0.0006121
0.002649
0.01023
0.03198
0.05369
0.03983
0.02322
0.01898
0.0263
0.04318
0.0717
0.1045
0.1249
0.1829
0.2417
0.3329
0.4731
0.618
0.7147
0.78
0.8073
0.8058
0.7966
0.7821
0.7686
0.7663
0.7739
0.7881
0.8001
0.8114
0.817
0.8206
0.8247
0.8296
0.8341
0.8376
0.8402
0.8428
0.8501
0.86
0.8703
0.8793
0.8857
0.8895
0.8899
0.89
0.8862
0.8774
0.8645
0.8474
0.8232
0.8016
0.7896
0.7861
0.7879
0.7936
0.7969
0.7945
0.7865
0.7734
0.7502
0.7231
0.6955
0.6737
0.645
0.6196
0.5986
0.5843
0.5724
0.5697
0.5581
0.545
0.5376
0.5384
0.5464
0.5593
0.5753
0.5922
0.6096
0.6255
0.6392
0.6522
0.6676
0.6883
0.7076
0.7295
0.7524
0.7734
0.7917
0.8088
0.8208
0.8307
0.841
0.8526
0.867
0.8832
0.8995
0.9149
0.9283
0.9389
0.95
0.9625
0.9746
0.9843
0.9906
0.994
0.9957
0.9968
0.9975
0.9979
0.01721
0.02367
0.03122
0.04583
0.0637
0.07383
0.07842
0.07023
0.04838
0.02452
0.01034
0.00432
0.00237
0.002695
0.004462
0.009212
0.01559
0.02218
0.02635
0.03384
0.04702
0.05647
0.07739
0.06255
0.04583
0.03287
0.02653
0.02586
0.03262
0.03377
0.0301
0.03266
0.02897
0.0265
0.01825
0.009982
0.004284
0.003806
0.00463
0.002362
0.0009772
0.0003453
0.000159
8.323e-05
8.599e-05
4.57e-05
2.794e-05
4.215e-05
0.0001544
0.0007404
0.004933
0.03354
0.201
0.5847
0.6891
0.5887
0.3297
0.1763
0.1421
0.1509
0.1754
0.204
0.2238
0.3157
0.417
0.5131
0.611
0.7088
0.773
0.816
0.8331
0.8327
0.8273
0.8206
0.8196
0.8265
0.8374
0.8499
0.8589
0.8654
0.8698
0.8735
0.8789
0.8861
0.8931
0.8989
0.902
0.9035
0.9058
0.9091
0.9135
0.9186
0.9248
0.9318
0.9362
0.9376
0.9333
0.922
0.9041
0.883
0.8618
0.8475
0.8414
0.8411
0.8469
0.8551
0.8625
0.8666
0.8649
0.8571
0.8438
0.8271
0.8091
0.7935
0.7767
0.7623
0.7511
0.7426
0.735
0.7301
0.722
0.7152
0.7125
0.7149
0.7218
0.7314
0.7434
0.7561
0.7688
0.7804
0.7905
0.8001
0.8106
0.8229
0.8378
0.8535
0.8683
0.8807
0.8909
0.8996
0.9076
0.9146
0.9211
0.9272
0.9343
0.9421
0.9497
0.9568
0.9626
0.9669
0.9735
0.9813
0.988
0.9927
0.9952
0.9963
0.997
0.9976
0.9979
0.9979
0.02997
0.03702
0.04622
0.0652
0.08419
0.09128
0.07927
0.05091
0.02447
0.01132
0.005114
0.003482
0.003459
0.005448
0.01012
0.016
0.02397
0.02456
0.02352
0.02214
0.0271
0.03515
0.05549
0.0689
0.06719
0.05593
0.04223
0.03759
0.03617
0.04018
0.04457
0.05511
0.04856
0.03937
0.01835
0.008053
0.003963
0.003706
0.003232
0.00122
0.0004338
0.0001449
7.861e-05
6.006e-05
7.415e-05
6.105e-05
8.673e-05
0.0003192
0.001926
0.01414
0.1317
0.6806
0.9018
0.9547
0.9621
0.9404
0.8827
0.7782
0.6344
0.5234
0.4492
0.4243
0.4071
0.4943
0.5656
0.6278
0.6896
0.7544
0.7997
0.832
0.8481
0.8536
0.8543
0.855
0.8578
0.863
0.8692
0.8764
0.8822
0.8881
0.8937
0.8993
0.9057
0.9129
0.9195
0.9252
0.9279
0.9291
0.9307
0.9335
0.9383
0.9448
0.9525
0.9586
0.9616
0.9602
0.9535
0.9404
0.9233
0.9056
0.8906
0.8813
0.8778
0.8773
0.8801
0.8857
0.8917
0.8962
0.8966
0.893
0.8857
0.8763
0.8661
0.8567
0.8499
0.8462
0.845
0.8444
0.8428
0.8398
0.8367
0.8355
0.8366
0.8404
0.8457
0.8519
0.8588
0.8659
0.8727
0.8793
0.8854
0.8917
0.8985
0.9055
0.9128
0.9195
0.9252
0.9304
0.9357
0.941
0.9465
0.9512
0.9552
0.9585
0.9623
0.9664
0.9706
0.9742
0.9771
0.9789
0.9839
0.9893
0.9936
0.9958
0.997
0.9973
0.9977
0.998
0.998
0.9975
0.04463
0.05222
0.0633
0.0872
0.1008
0.07857
0.04331
0.01873
0.007539
0.004202
0.003187
0.003617
0.006155
0.01235
0.01773
0.02409
0.02589
0.01926
0.01648
0.01353
0.01575
0.01882
0.03331
0.0562
0.0723
0.07181
0.07189
0.06583
0.05443
0.05592
0.05534
0.05504
0.03996
0.02803
0.01325
0.005951
0.003615
0.00428
0.003075
0.001209
0.0003549
0.0001348
6.025e-05
4.432e-05
4.698e-05
7.874e-05
0.000379
0.003463
0.04484
0.4889
0.8668
0.9634
0.9874
0.9926
0.9922
0.9864
0.9725
0.9432
0.8867
0.8015
0.7258
0.6697
0.6419
0.6684
0.6962
0.7243
0.7561
0.791
0.8207
0.8422
0.8546
0.8613
0.8651
0.8683
0.8717
0.8759
0.8806
0.886
0.8925
0.9005
0.9085
0.9162
0.9238
0.931
0.9375
0.9428
0.9453
0.9471
0.9489
0.9521
0.9572
0.9634
0.9686
0.9715
0.9723
0.9687
0.9616
0.9488
0.9352
0.9211
0.9108
0.9045
0.9016
0.9007
0.9016
0.9048
0.9083
0.9114
0.912
0.9103
0.9068
0.9027
0.8984
0.8943
0.891
0.8885
0.8872
0.8862
0.8855
0.8849
0.8851
0.8867
0.8899
0.8946
0.8995
0.9045
0.9095
0.9144
0.9191
0.9237
0.9281
0.9326
0.9373
0.942
0.9464
0.9501
0.9531
0.9557
0.9588
0.9621
0.9658
0.9688
0.9713
0.9734
0.9757
0.9781
0.9804
0.9824
0.9838
0.9845
0.9881
0.9923
0.9954
0.9969
0.9977
0.9977
0.9978
0.9979
0.9975
0.9961
0.0557
0.06433
0.07983
0.1043
0.108
0.06821
0.02546
0.008611
0.003396
0.002881
0.003429
0.007527
0.0153
0.02284
0.02734
0.03358
0.02917
0.02336
0.01726
0.01152
0.01254
0.01774
0.03616
0.06011
0.07761
0.07516
0.07813
0.07211
0.06436
0.06336
0.06089
0.05436
0.03705
0.02322
0.01458
0.007846
0.005517
0.006784
0.003641
0.001291
0.0003533
0.0001087
4.133e-05
3.238e-05
2.985e-05
8.14e-05
0.0006367
0.01193
0.2312
0.8186
0.947
0.9832
0.9926
0.9946
0.9938
0.9896
0.9813
0.9621
0.9208
0.854
0.7846
0.7293
0.7054
0.7116
0.7283
0.7533
0.7786
0.8038
0.8259
0.8419
0.8522
0.8596
0.8652
0.8699
0.8741
0.8788
0.8842
0.8917
0.9016
0.9126
0.9227
0.9312
0.9379
0.9436
0.9483
0.9523
0.9551
0.9583
0.9619
0.9658
0.9706
0.9744
0.9767
0.9765
0.9742
0.9675
0.9593
0.949
0.9398
0.9313
0.9265
0.9231
0.9204
0.9182
0.9165
0.9163
0.9165
0.917
0.9165
0.9152
0.9134
0.9119
0.9106
0.9092
0.9078
0.9068
0.9064
0.9069
0.9081
0.9097
0.912
0.9152
0.9192
0.924
0.9287
0.9329
0.9367
0.9403
0.9437
0.9472
0.9504
0.9537
0.957
0.9603
0.9634
0.966
0.9681
0.97
0.9721
0.9742
0.9764
0.9783
0.9799
0.9812
0.9825
0.9839
0.9853
0.9864
0.9872
0.9875
0.9898
0.9928
0.9952
0.9966
0.9973
0.9972
0.9973
0.9971
0.996
0.9931
0.05654
0.0689
0.0881
0.1034
0.09073
0.04898
0.01562
0.005495
0.003603
0.004218
0.007504
0.01773
0.02582
0.0316
0.03394
0.03472
0.03041
0.02526
0.01631
0.01042
0.01108
0.01714
0.03261
0.05278
0.06706
0.06554
0.07258
0.07259
0.07249
0.07513
0.07278
0.06259
0.04887
0.0392
0.02847
0.01882
0.01451
0.01538
0.006987
0.002899
0.001007
0.0003679
0.0001308
0.000114
0.0001019
0.0003072
0.002582
0.04397
0.5089
0.8656
0.9473
0.9758
0.9852
0.9871
0.9853
0.9797
0.9711
0.9517
0.9124
0.8544
0.7977
0.7564
0.7405
0.7375
0.7493
0.7695
0.7912
0.811
0.8268
0.8384
0.8472
0.8538
0.8596
0.8645
0.8696
0.8761
0.8839
0.896
0.9097
0.9231
0.9344
0.9423
0.9474
0.9513
0.9545
0.9571
0.9598
0.964
0.969
0.9729
0.9762
0.9774
0.9763
0.973
0.9681
0.9608
0.9541
0.948
0.9436
0.939
0.9362
0.9336
0.9311
0.9286
0.9261
0.9241
0.9223
0.9209
0.9192
0.9177
0.9165
0.9163
0.9162
0.9163
0.9166
0.9172
0.9185
0.9206
0.9233
0.9264
0.9299
0.9337
0.938
0.9424
0.9466
0.9501
0.9533
0.9562
0.959
0.9617
0.9641
0.9665
0.9688
0.9711
0.9733
0.9752
0.9767
0.978
0.9794
0.9807
0.9821
0.9833
0.9844
0.9854
0.9863
0.9871
0.9879
0.9885
0.9889
0.9889
0.9899
0.9918
0.9939
0.9956
0.9967
0.9968
0.9966
0.9954
0.9929
0.9881
0.05317
0.06905
0.09215
0.09651
0.07317
0.0367
0.01296
0.00697
0.006206
0.009192
0.0154
0.02777
0.02984
0.03118
0.03044
0.0311
0.02845
0.01964
0.01199
0.008565
0.009696
0.01639
0.02834
0.04551
0.05476
0.05635
0.06108
0.06069
0.0592
0.0648
0.0702
0.07028
0.06572
0.06124
0.05161
0.04159
0.03317
0.03305
0.01952
0.01105
0.005381
0.002723
0.001254
0.001191
0.001159
0.002964
0.01551
0.1328
0.599
0.837
0.9032
0.9352
0.952
0.9585
0.9584
0.9532
0.942
0.9153
0.872
0.8182
0.7746
0.7532
0.7465
0.7509
0.7652
0.7837
0.8016
0.8162
0.8267
0.8345
0.8406
0.8455
0.8499
0.8544
0.8603
0.8688
0.8795
0.8952
0.9123
0.9282
0.9399
0.9499
0.9566
0.9614
0.9646
0.9652
0.9648
0.9665
0.9699
0.9724
0.9751
0.9749
0.9717
0.9651
0.9581
0.95
0.945
0.9431
0.9422
0.9406
0.9388
0.9371
0.9352
0.9333
0.9313
0.9292
0.9267
0.9244
0.9221
0.9205
0.9197
0.9198
0.9204
0.9215
0.9229
0.925
0.9276
0.931
0.9347
0.9387
0.9427
0.9467
0.9507
0.9545
0.9581
0.9611
0.9638
0.9662
0.9684
0.9704
0.9722
0.974
0.9757
0.9773
0.9789
0.9803
0.9815
0.9826
0.9836
0.9845
0.9853
0.9861
0.9868
0.9875
0.9881
0.9887
0.9892
0.9896
0.9898
0.9896
0.9896
0.9907
0.9927
0.9946
0.996
0.9964
0.9959
0.9938
0.9896
0.9826
0.04837
0.0673
0.09498
0.0785
0.0494
0.02421
0.0117
0.01083
0.01571
0.01804
0.02158
0.02462
0.02545
0.02716
0.0277
0.02137
0.009703
0.00388
0.001836
0.001417
0.002309
0.00588
0.01369
0.02663
0.04161
0.04775
0.04895
0.04659
0.04072
0.03887
0.0426
0.05548
0.07162
0.07863
0.07517
0.06882
0.05608
0.05944
0.04567
0.03588
0.02744
0.02142
0.01504
0.01777
0.0208
0.04754
0.1371
0.428
0.6474
0.7637
0.8064
0.8319
0.8621
0.8863
0.8994
0.9027
0.8913
0.8607
0.8148
0.7737
0.7453
0.7364
0.7394
0.7488
0.7636
0.7803
0.7966
0.8096
0.8191
0.8251
0.8297
0.8334
0.8364
0.8399
0.8456
0.8549
0.8675
0.8857
0.9052
0.927
0.9448
0.9603
0.9702
0.976
0.9783
0.9777
0.9742
0.9706
0.9685
0.967
0.9664
0.9627
0.9561
0.9485
0.9435
0.9395
0.9388
0.9385
0.9364
0.9338
0.9314
0.9296
0.9287
0.9279
0.927
0.9258
0.9241
0.9221
0.9201
0.919
0.9192
0.9203
0.9221
0.9243
0.927
0.9301
0.9339
0.9381
0.9426
0.9471
0.9514
0.9553
0.9588
0.962
0.965
0.9676
0.9701
0.9722
0.9741
0.9758
0.9773
0.9787
0.98
0.9812
0.9823
0.9833
0.9842
0.985
0.9857
0.9864
0.9871
0.9877
0.9882
0.9888
0.9892
0.9897
0.99
0.9901
0.99
0.9901
0.9902
0.9912
0.993
0.9947
0.9961
0.9966
0.9961
0.9939
0.9899
0.9843
0.04216
0.0622
0.09518
0.06484
0.03436
0.01915
0.01398
0.0198
0.03123
0.02837
0.02324
0.0183
0.01537
0.02186
0.01704
0.006622
0.002065
0.0006182
0.0003215
0.0003467
0.0008994
0.003627
0.01122
0.02439
0.04412
0.04834
0.05122
0.04587
0.03674
0.03224
0.038
0.05648
0.08343
0.1036
0.1012
0.09676
0.08781
0.09204
0.08311
0.07821
0.08248
0.08975
0.09301
0.1337
0.1885
0.2996
0.4787
0.6066
0.6522
0.683
0.6981
0.7153
0.7694
0.8152
0.8462
0.8495
0.8326
0.7925
0.7488
0.7232
0.7099
0.7112
0.7221
0.7349
0.7502
0.766
0.7817
0.7941
0.803
0.8083
0.8114
0.8139
0.8166
0.8199
0.8251
0.8342
0.8462
0.8662
0.8889
0.9177
0.9459
0.968
0.9805
0.9869
0.9882
0.986
0.9798
0.9702
0.9604
0.9518
0.9463
0.9409
0.9342
0.9291
0.9286
0.929
0.93
0.9279
0.9232
0.9185
0.9149
0.9134
0.9134
0.9137
0.9136
0.9131
0.9122
0.9111
0.9102
0.9104
0.9122
0.9148
0.9181
0.9221
0.9267
0.9316
0.9372
0.9427
0.9478
0.9526
0.9569
0.9605
0.9637
0.9665
0.9691
0.9714
0.9736
0.9755
0.9772
0.9786
0.9799
0.9811
0.9822
0.9833
0.9842
0.985
0.9858
0.9864
0.9871
0.9876
0.9882
0.9887
0.9891
0.9895
0.9899
0.9902
0.9902
0.9901
0.9901
0.9911
0.992
0.9933
0.9947
0.9958
0.9964
0.9969
0.9969
0.9958
0.9933
0.9891
0.03308
0.05105
0.08375
0.05278
0.02453
0.01369
0.01452
0.02467
0.03863
0.03502
0.02396
0.01736
0.01558
0.01882
0.007276
0.001703
0.0004953
0.0001913
0.000171
0.0003104
0.001119
0.004527
0.01315
0.02632
0.04929
0.04863
0.05372
0.04906
0.03803
0.03112
0.03524
0.05255
0.07826
0.09999
0.1037
0.1058
0.1098
0.1188
0.1265
0.1313
0.1497
0.1833
0.2189
0.299
0.4215
0.5216
0.5983
0.6421
0.6543
0.6559
0.6717
0.6814
0.7237
0.7565
0.7742
0.7728
0.7582
0.7253
0.7007
0.6908
0.6857
0.6962
0.7161
0.7392
0.7603
0.7767
0.7888
0.7961
0.7984
0.7957
0.7913
0.7887
0.7905
0.7936
0.799
0.8076
0.8192
0.8388
0.8649
0.9018
0.9399
0.9687
0.9824
0.9883
0.9889
0.9854
0.9761
0.9611
0.9417
0.9267
0.9169
0.9117
0.9075
0.9072
0.9112
0.9149
0.9144
0.9095
0.9009
0.8923
0.8872
0.8867
0.8884
0.8911
0.8936
0.8956
0.8965
0.8964
0.8949
0.8948
0.8971
0.901
0.9065
0.9131
0.9205
0.9283
0.9366
0.9439
0.9501
0.9552
0.9595
0.963
0.9661
0.9688
0.9712
0.9735
0.9755
0.9773
0.9789
0.9803
0.9815
0.9826
0.9837
0.9846
0.9854
0.9861
0.9868
0.9874
0.9879
0.9884
0.9889
0.9893
0.9897
0.99
0.9902
0.9902
0.99
0.99
0.9908
0.9925
0.9941
0.9956
0.9964
0.9969
0.9973
0.9977
0.9979
0.9972
0.9956
0.9915
0.02321
0.03784
0.06346
0.0425
0.02029
0.01528
0.01828
0.03212
0.03985
0.03372
0.02079
0.0137
0.01123
0.01021
0.002246
0.0005755
0.0002562
0.000196
0.0003048
0.000738
0.002801
0.008914
0.02265
0.04186
0.07221
0.0637
0.06358
0.05831
0.04901
0.04406
0.04922
0.06526
0.09031
0.1029
0.1052
0.1125
0.1254
0.1394
0.1495
0.1595
0.1818
0.2161
0.2704
0.3327
0.4195
0.4887
0.5612
0.6185
0.6546
0.6591
0.6662
0.6595
0.6706
0.6854
0.6902
0.6854
0.687
0.6846
0.6898
0.6951
0.704
0.7243
0.7512
0.7764
0.7964
0.8067
0.8086
0.8041
0.7951
0.782
0.7703
0.7617
0.7609
0.7633
0.7693
0.7827
0.7954
0.8137
0.8387
0.8778
0.9214
0.956
0.9748
0.9824
0.9823
0.9758
0.9592
0.9347
0.905
0.8855
0.8751
0.8742
0.8742
0.8769
0.8812
0.885
0.8834
0.8763
0.864
0.8556
0.8533
0.8583
0.8643
0.8705
0.8741
0.8768
0.8776
0.8766
0.8731
0.8718
0.874
0.879
0.8862
0.8954
0.9055
0.9166
0.9278
0.9387
0.9479
0.9552
0.9606
0.9647
0.9676
0.9702
0.9725
0.9747
0.9767
0.9785
0.98
0.9814
0.9826
0.9836
0.9846
0.9854
0.9862
0.9868
0.9874
0.988
0.9884
0.9889
0.9892
0.9896
0.9898
0.99
0.9899
0.9896
0.9896
0.9904
0.9921
0.9942
0.9959
0.9968
0.9972
0.9974
0.9974
0.9975
0.9977
0.997
0.9954
0.9909
0.0195
0.03195
0.04985
0.03636
0.01726
0.0164
0.02368
0.04158
0.0446
0.03619
0.02283
0.01321
0.007659
0.004991
0.001112
0.0004022
0.0003935
0.0006468
0.001379
0.003555
0.01052
0.02373
0.04789
0.07857
0.1131
0.09311
0.08544
0.07611
0.06715
0.06275
0.07183
0.08685
0.1097
0.1187
0.1161
0.1175
0.135
0.1571
0.177
0.1996
0.2249
0.2451
0.2773
0.3196
0.3946
0.4572
0.5292
0.6056
0.6493
0.6667
0.6739
0.6579
0.6323
0.6271
0.6253
0.6318
0.6561
0.68
0.7053
0.7259
0.7468
0.7711
0.7942
0.8091
0.8182
0.8176
0.8114
0.7977
0.7797
0.7568
0.7375
0.7234
0.7218
0.7237
0.7324
0.7531
0.7677
0.7862
0.8075
0.8392
0.8832
0.9224
0.9449
0.9546
0.9498
0.933
0.9028
0.8672
0.8339
0.8215
0.8143
0.8154
0.8148
0.8179
0.824
0.8298
0.8301
0.8251
0.8154
0.8129
0.8171
0.8272
0.8358
0.8435
0.847
0.8504
0.8506
0.8487
0.843
0.8404
0.8423
0.8489
0.8585
0.8705
0.8835
0.8976
0.9123
0.9272
0.9397
0.9493
0.9571
0.9632
0.9674
0.9709
0.9737
0.9757
0.9775
0.9792
0.9808
0.9821
0.9832
0.9843
0.9852
0.986
0.9866
0.9872
0.9878
0.9882
0.9886
0.989
0.9892
0.9894
0.9894
0.9893
0.9889
0.9888
0.9897
0.9915
0.9938
0.9958
0.9969
0.9975
0.9975
0.9974
0.9969
0.9963
0.9962
0.9953
0.993
0.9869
0.01958
0.0305
0.04519
0.03688
0.01864
0.02094
0.0286
0.04457
0.04564
0.04068
0.0251
0.01543
0.00833
0.004736
0.001427
0.0008505
0.001481
0.003546
0.008291
0.01689
0.03761
0.05791
0.08236
0.1119
0.132
0.1122
0.1003
0.09097
0.0856
0.08781
0.09993
0.1174
0.1349
0.1409
0.1377
0.1415
0.1594
0.1758
0.1879
0.2021
0.2226
0.2429
0.2686
0.2993
0.3477
0.3952
0.4573
0.5456
0.5912
0.6232
0.6314
0.6297
0.6131
0.6288
0.6333
0.6433
0.6688
0.6985
0.7385
0.7738
0.8043
0.8208
0.8272
0.822
0.8168
0.8064
0.7945
0.7724
0.7505
0.7263
0.7059
0.6903
0.6833
0.6799
0.6892
0.7155
0.7337
0.7518
0.7649
0.7781
0.8019
0.8353
0.8559
0.8658
0.8512
0.8154
0.7648
0.7207
0.6911
0.6939
0.6985
0.7061
0.7107
0.7158
0.7231
0.7312
0.7368
0.7416
0.7462
0.7574
0.7731
0.7904
0.8006
0.8082
0.81
0.8109
0.8102
0.8075
0.8013
0.7993
0.8029
0.8118
0.8247
0.8402
0.8562
0.873
0.8905
0.9091
0.9253
0.9385
0.9491
0.9583
0.9651
0.9705
0.9744
0.9766
0.9782
0.9797
0.9811
0.9824
0.9836
0.9845
0.9854
0.986
0.9866
0.9872
0.9876
0.988
0.9883
0.9885
0.9885
0.9884
0.9882
0.9884
0.9887
0.9897
0.9914
0.9935
0.9954
0.9966
0.9971
0.9972
0.9968
0.9962
0.995
0.9936
0.992
0.9897
0.9854
0.9769
0.02175
0.03077
0.04536
0.03617
0.02111
0.02354
0.02732
0.04258
0.04632
0.04557
0.02891
0.02257
0.01497
0.009494
0.004179
0.003179
0.005895
0.01302
0.02607
0.04455
0.07204
0.08776
0.1014
0.1139
0.1119
0.1023
0.1021
0.09024
0.08431
0.08618
0.08823
0.101
0.1223
0.1356
0.1365
0.143
0.1563
0.1709
0.1852
0.2032
0.2274
0.2519
0.2785
0.3048
0.3305
0.3498
0.3808
0.4564
0.495
0.5397
0.564
0.5764
0.5736
0.6029
0.6178
0.6321
0.6569
0.6913
0.7413
0.7868
0.822
0.8329
0.8276
0.8038
0.7829
0.76
0.7438
0.7211
0.701
0.683
0.6687
0.6555
0.644
0.6313
0.6367
0.6639
0.6833
0.6943
0.6968
0.69
0.6819
0.688
0.6854
0.6772
0.6475
0.6149
0.5721
0.55
0.5317
0.5326
0.5347
0.5374
0.5413
0.5491
0.5625
0.579
0.6033
0.6269
0.6516
0.6773
0.7013
0.7182
0.7272
0.7327
0.7335
0.7344
0.7361
0.7368
0.7355
0.7398
0.7509
0.7679
0.7889
0.811
0.8312
0.8495
0.8679
0.8882
0.9072
0.9224
0.9361
0.9486
0.9597
0.9682
0.9739
0.977
0.9786
0.9798
0.9811
0.9823
0.9833
0.9842
0.9848
0.9854
0.9858
0.9863
0.9867
0.9869
0.9871
0.9871
0.9869
0.9873
0.988
0.9895
0.9907
0.9922
0.9936
0.9953
0.9963
0.9969
0.9967
0.9963
0.995
0.9933
0.9901
0.9869
0.9828
0.9789
0.9732
0.9632
0.02541
0.03384
0.04854
0.03798
0.0251
0.02257
0.01964
0.03222
0.0446
0.04984
0.03679
0.03902
0.02625
0.01936
0.01228
0.01115
0.01768
0.0331
0.04789
0.06279
0.08416
0.09383
0.1055
0.1057
0.09744
0.09551
0.107
0.1039
0.09438
0.09322
0.08822
0.09822
0.1162
0.1389
0.1462
0.1549
0.1645
0.1761
0.187
0.2013
0.2204
0.2399
0.2577
0.2688
0.2738
0.2773
0.2912
0.3465
0.3925
0.4392
0.4776
0.5137
0.54
0.5858
0.6135
0.6345
0.6554
0.6864
0.7346
0.7825
0.8143
0.8186
0.7968
0.7538
0.712
0.6736
0.6529
0.6329
0.6252
0.6249
0.6275
0.6212
0.6053
0.5838
0.5819
0.6027
0.6168
0.6187
0.6041
0.5731
0.5407
0.527
0.518
0.5179
0.4999
0.4815
0.4457
0.4174
0.3781
0.3517
0.3325
0.3242
0.3346
0.3606
0.3878
0.4052
0.4388
0.4705
0.5044
0.5395
0.5725
0.595
0.6113
0.6217
0.6211
0.6152
0.6145
0.6192
0.631
0.6548
0.6844
0.7175
0.7518
0.7836
0.8104
0.8318
0.8502
0.8694
0.8887
0.9053
0.9211
0.9362
0.9501
0.9625
0.9708
0.9755
0.9779
0.9791
0.9801
0.9811
0.9821
0.9828
0.9832
0.9835
0.9838
0.9842
0.9845
0.9847
0.9858
0.9871
0.9883
0.99
0.9913
0.9927
0.9937
0.995
0.9955
0.9962
0.9964
0.9962
0.995
0.9932
0.9895
0.9853
0.9799
0.9743
0.9662
0.9607
0.9565
0.9477
0.02712
0.03492
0.0533
0.04143
0.03106
0.01696
0.01108
0.01863
0.03929
0.06109
0.06586
0.06845
0.04395
0.0354
0.02718
0.02609
0.03099
0.04923
0.05984
0.07234
0.08283
0.08933
0.09805
0.09523
0.09615
0.1009
0.1157
0.1134
0.1082
0.09637
0.08895
0.09436
0.1089
0.1333
0.1498
0.1621
0.1673
0.178
0.1874
0.1978
0.2112
0.2288
0.2458
0.2591
0.266
0.275
0.2888
0.3152
0.3439
0.3832
0.4285
0.4806
0.5285
0.5741
0.6083
0.6355
0.6598
0.6913
0.7285
0.7603
0.7803
0.7759
0.7442
0.6913
0.6367
0.5929
0.573
0.564
0.5679
0.5778
0.5856
0.5789
0.5585
0.5342
0.5254
0.5319
0.5336
0.5224
0.4916
0.4462
0.4049
0.3771
0.3633
0.3593
0.3247
0.288
0.2503
0.2283
0.2105
0.2044
0.1933
0.1903
0.2027
0.2252
0.2518
0.2715
0.2977
0.3221
0.3548
0.3839
0.4099
0.4297
0.45
0.4707
0.4812
0.4831
0.4935
0.5139
0.5405
0.5808
0.6244
0.6709
0.7181
0.7621
0.7976
0.8247
0.8459
0.8625
0.8785
0.8934
0.9078
0.9228
0.938
0.9531
0.9651
0.972
0.9756
0.9771
0.9776
0.9784
0.9792
0.981
0.9831
0.9851
0.9867
0.9878
0.9881
0.9884
0.9896
0.9904
0.9908
0.9916
0.9921
0.993
0.9939
0.9946
0.9949
0.9952
0.9949
0.9939
0.9909
0.9854
0.9778
0.9691
0.9614
0.9556
0.9485
0.9439
0.9405
0.9283
0.02393
0.03236
0.05195
0.0433
0.04225
0.01771
0.01043
0.01454
0.03654
0.05687
0.08004
0.07795
0.05453
0.04638
0.04435
0.04783
0.05065
0.06705
0.07829
0.08402
0.08513
0.08607
0.08673
0.08323
0.08634
0.09026
0.1061
0.1094
0.1122
0.1087
0.09832
0.1016
0.1204
0.1422
0.1559
0.1663
0.164
0.1671
0.1825
0.1945
0.2053
0.2171
0.2307
0.2452
0.2592
0.2774
0.3027
0.3295
0.3571
0.3911
0.424
0.4651
0.5114
0.5527
0.5887
0.6211
0.649
0.6817
0.7129
0.736
0.7476
0.7416
0.7088
0.6638
0.6163
0.5748
0.5492
0.5391
0.5371
0.5421
0.5474
0.5385
0.5131
0.4877
0.4717
0.4699
0.4579
0.4319
0.3849
0.33
0.2817
0.2468
0.216
0.1905
0.1571
0.1344
0.1187
0.1175
0.1167
0.1205
0.1127
0.1106
0.1217
0.145
0.1687
0.1885
0.2004
0.2107
0.2305
0.2504
0.2698
0.2899
0.324
0.3618
0.3872
0.3988
0.4144
0.4469
0.484
0.5352
0.5866
0.6395
0.6927
0.7439
0.7856
0.8184
0.8426
0.8601
0.8749
0.8883
0.9007
0.9123
0.9247
0.9418
0.9591
0.9718
0.9786
0.9818
0.9824
0.9825
0.983
0.9851
0.9875
0.9897
0.9908
0.9909
0.9899
0.9888
0.9894
0.99
0.9905
0.9908
0.9908
0.9907
0.9915
0.9918
0.9916
0.9911
0.9894
0.986
0.9784
0.9666
0.9544
0.9441
0.9376
0.933
0.9253
0.9145
0.9041
0.8848
0.02181
0.03266
0.058
0.0486
0.05279
0.01802
0.01024
0.01111
0.03654
0.05341
0.07787
0.0665
0.05088
0.04897
0.0515
0.05698
0.05735
0.07172
0.08545
0.0866
0.07653
0.06866
0.06947
0.07454
0.08419
0.08372
0.09276
0.09514
0.1
0.1011
0.1011
0.1012
0.1239
0.143
0.1508
0.1513
0.1453
0.1453
0.1693
0.1854
0.1956
0.2045
0.2152
0.2296
0.2504
0.2753
0.3057
0.3419
0.3798
0.4129
0.4358
0.462
0.4909
0.5182
0.551
0.5845
0.6155
0.6444
0.6702
0.6908
0.7076
0.7157
0.6967
0.663
0.6199
0.5731
0.534
0.5168
0.4996
0.4904
0.4894
0.4764
0.4516
0.4301
0.4077
0.3887
0.3579
0.3053
0.2476
0.2024
0.1527
0.1245
0.1039
0.08816
0.07128
0.06413
0.0553
0.0589
0.06559
0.07256
0.07013
0.07117
0.07966
0.09944
0.1195
0.1373
0.1499
0.1619
0.1832
0.2063
0.2246
0.2419
0.2698
0.3061
0.3367
0.3627
0.396
0.4379
0.4795
0.5309
0.5769
0.6285
0.681
0.7328
0.7763
0.8124
0.8428
0.8664
0.8859
0.8992
0.9097
0.9156
0.9214
0.935
0.954
0.9699
0.9794
0.9842
0.9856
0.986
0.9857
0.9869
0.9885
0.9906
0.9911
0.9908
0.9892
0.9874
0.9875
0.9877
0.9872
0.9857
0.9846
0.9827