/*--------------------------------*- C++ -*----------------------------------*\
| =========                 |                                                 |
| \\      /  F ield         | OpenFOAM: The Open Source CFD Toolbox           |
|  \\    /   O peration     | Version:  5.x                                   |
|   \\  /    A nd           | Web:      www.OpenFOAM.org                      |
|    \\/     M anipulation  |                                                 |
\*---------------------------------------------------------------------------*/
FoamFile
{
    version     2.0;
    format      ascii;
    class       volScalarField;
    location    "45";
    object      gamma;
}
// * * * * * * * * * * * * * * * * * * * * * * * * * * * * * * * * * * * * * //

dimensions      [0 0 0 0 0 0 0];

internalField   nonuniform List<scalar> 
80000
(
1
1
1
1
1
1
1
1
1
1
1
1
1
1
1
1
1
1
1
1
1
1
1
1
1
1
1
1
1
1
1
0.99999
0.99999
0.99999
0.99999
0.99999
0.99999
0.99999
0.99999
0.99999
0.99999
0.99999
0.99998
0.99998
0.99998
0.99998
0.99998
0.99998
0.99998
0.99998
0.99998
0.99998
0.99998
0.99998
0.99997
0.99997
0.99997
0.99997
0.99997
0.99997
0.99997
0.99997
0.99997
0.99997
0.99997
0.99997
0.99997
0.99997
0.99997
0.99997
0.99997
0.99997
0.99997
0.99997
0.99997
0.99997
0.99997
0.99997
0.99997
0.99997
0.99997
0.99997
0.99997
0.99997
0.99997
0.99997
0.99997
0.99997
0.99997
0.99997
0.99998
0.99998
0.99998
0.99998
0.99998
0.99998
0.99998
0.99998
0.99998
0.99997
0.99996
0.99995
0.99994
0.99994
0.99994
0.99994
0.99994
0.99993
0.99993
0.99993
0.99993
0.99993
0.99993
0.99993
0.99993
0.99993
0.99993
0.99993
0.99992
0.99992
0.99992
0.99992
0.99992
0.99992
0.99992
0.99992
0.99992
0.99992
0.99992
0.99992
0.99992
0.99992
0.99992
0.99992
0.99992
0.99992
0.99992
0.99992
0.99992
0.99992
0.99992
0.99992
0.99992
0.99992
0.99992
0.99992
0.99992
0.99992
0.99992
0.99992
0.99992
0.99992
0.99992
0.99993
0.99993
0.99993
0.99993
0.99993
0.99993
0.99993
0.99993
0.99993
0.99993
0.99994
0.99994
0.99994
0.99994
0.99994
0.99994
0.99994
0.99994
0.99994
0.99994
0.99994
0.99994
0.99994
0.99994
0.99994
0.99994
0.99994
0.99994
0.99994
0.99994
0.99994
0.99994
0.99994
0.99994
0.99994
0.99994
0.99994
0.99994
0.99994
0.99994
0.99994
0.99994
0.99994
0.99994
0.99994
0.99994
0.99994
0.99994
0.99994
0.99994
0.99994
0.99994
0.99994
0.99993
0.99993
0.99993
0.99993
0.99993
0.99993
0.99993
0.99993
0.99992
0.99992
0.99992
0.99992
0.99992
0.99992
0.99992
0.99992
0.99991
0.99991
0.99991
0.99991
0.99991
0.99991
0.99991
0.99991
0.99991
0.99991
0.99991
0.99991
0.99991
0.99991
0.99991
0.99991
0.99991
0.99991
0.99991
0.99991
0.99991
0.99991
0.99991
0.9999
0.9999
0.99989
0.99989
0.99988
0.99987
0.99986
0.99984
0.99979
0.99967
0.99949
0.99924
0.999
0.99877
0.99837
0.99715
0.99265
0.97186
0.85424
0.25364
0.020439
0.0029885
0.00068371
0.00024008
0.00011605
8.6317e-05
9.4134e-05
0.00014553
0.00023861
0.00035568
0.00039285
0.00036965
0.00037571
0.00053171
0.00088641
0.0017005
0.0025223
0.003291
0.0035543
0.0026026
0.001634
0.00087258
0.00059262
0.00053904
0.00068502
0.00072511
0.00071717
0.00069954
0.00068297
0.00066741
0.0006571
0.00065211
0.0006491
0.00064821
0.00064382
0.00063704
0.00062817
0.00061866
0.00061106
0.00060555
0.0006015
0.00059966
0.00059682
0.00058816
0.00057292
0.00055408
0.000549
0.00059462
0.0007644
0.00095122
0.00063753
0.00033271
0.00014302
8.3756e-05
7.1651e-05
9.3622e-05
9.9062e-05
9.6767e-05
9.3749e-05
9.1842e-05
9.0727e-05
8.9733e-05
8.8696e-05
8.7641e-05
8.6602e-05
8.5588e-05
8.4599e-05
8.3631e-05
8.2683e-05
8.1754e-05
8.0842e-05
7.9948e-05
7.9071e-05
7.8211e-05
7.7367e-05
7.654e-05
7.5731e-05
7.4938e-05
7.4162e-05
7.3405e-05
7.2666e-05
7.1946e-05
7.1245e-05
7.0564e-05
6.9905e-05
6.9266e-05
6.8651e-05
6.8058e-05
6.7488e-05
6.6943e-05
6.6423e-05
6.5928e-05
6.5459e-05
6.5017e-05
6.4601e-05
6.4211e-05
6.3848e-05
6.3512e-05
6.3202e-05
6.2918e-05
6.266e-05
6.2427e-05
6.2218e-05
6.2033e-05
6.187e-05
6.1728e-05
6.1606e-05
6.1503e-05
6.1418e-05
6.1348e-05
6.1292e-05
6.125e-05
6.1218e-05
6.1196e-05
6.1182e-05
6.1174e-05
6.1172e-05
6.1173e-05
6.1177e-05
6.1181e-05
6.1187e-05
6.1197e-05
6.1213e-05
6.122e-05
6.1161e-05
6.0984e-05
6.0938e-05
6.1622e-05
6.3515e-05
6.436e-05
5.5461e-05
4.7705e-05
5.304e-05
6.082e-05
8.1592e-05
1
1
1
1
1
1
1
1
1
1
1
1
1
1
1
1
1
1
1
1
1
1
1
1
1
1
1
1
1
1
1
1
1
0.99999
0.99999
0.99999
0.99999
0.99999
0.99999
0.99999
0.99999
0.99999
0.99999
0.99999
0.99999
0.99999
0.99999
0.99998
0.99998
0.99998
0.99998
0.99998
0.99998
0.99998
0.99998
0.99998
0.99998
0.99998
0.99998
0.99998
0.99998
0.99998
0.99998
0.99998
0.99998
0.99998
0.99998
0.99998
0.99998
0.99998
0.99998
0.99998
0.99998
0.99998
0.99998
0.99998
0.99998
0.99998
0.99998
0.99998
0.99998
0.99998
0.99998
0.99998
0.99998
0.99998
0.99998
0.99998
0.99998
0.99998
0.99998
0.99998
0.99998
0.99998
0.99998
0.99998
0.99998
0.99997
0.99997
0.99996
0.99996
0.99995
0.99995
0.99995
0.99995
0.99995
0.99995
0.99995
0.99995
0.99994
0.99994
0.99994
0.99994
0.99994
0.99994
0.99994
0.99994
0.99994
0.99994
0.99994
0.99994
0.99994
0.99994
0.99994
0.99994
0.99994
0.99993
0.99993
0.99993
0.99993
0.99993
0.99993
0.99993
0.99993
0.99993
0.99993
0.99993
0.99993
0.99993
0.99993
0.99993
0.99993
0.99993
0.99993
0.99993
0.99993
0.99993
0.99993
0.99994
0.99994
0.99994
0.99994
0.99994
0.99994
0.99994
0.99994
0.99994
0.99994
0.99994
0.99994
0.99994
0.99995
0.99995
0.99995
0.99995
0.99995
0.99995
0.99995
0.99995
0.99995
0.99995
0.99995
0.99995
0.99995
0.99995
0.99995
0.99995
0.99995
0.99995
0.99995
0.99995
0.99995
0.99995
0.99995
0.99995
0.99995
0.99995
0.99995
0.99995
0.99995
0.99995
0.99995
0.99995
0.99995
0.99995
0.99995
0.99995
0.99995
0.99995
0.99995
0.99995
0.99995
0.99995
0.99995
0.99995
0.99995
0.99995
0.99995
0.99994
0.99994
0.99994
0.99994
0.99994
0.99994
0.99994
0.99994
0.99994
0.99993
0.99993
0.99993
0.99993
0.99993
0.99993
0.99993
0.99993
0.99993
0.99993
0.99993
0.99993
0.99992
0.99992
0.99992
0.99992
0.99992
0.99993
0.99993
0.99993
0.99993
0.99992
0.99992
0.99992
0.99992
0.99992
0.99992
0.99992
0.99991
0.99991
0.99991
0.9999
0.99989
0.99988
0.99987
0.99986
0.99984
0.99978
0.99967
0.99951
0.9993
0.99902
0.99865
0.99783
0.99585
0.98984
0.96966
0.89807
0.67272
0.18658
0.032909
0.0066452
0.0015066
0.00048158
0.00022284
0.00016067
0.00014548
0.00014805
0.00015876
0.00020006
0.00030577
0.00058868
0.001213
0.0019406
0.0025807
0.0028493
0.0025378
0.001667
0.00099642
0.00057339
0.00045201
0.00045692
0.00056213
0.00058807
0.00057911
0.00056287
0.00054923
0.00053879
0.00053262
0.00052956
0.00052785
0.00052392
0.00051836
0.00051178
0.00050431
0.00049694
0.00049162
0.00048756
0.00048501
0.00048214
0.00047798
0.00046884
0.00045575
0.00044362
0.00045143
0.0005136
0.00058724
0.00056302
0.0003319
0.00016679
8.0434e-05
5.7913e-05
5.6947e-05
7.1788e-05
7.4826e-05
7.2858e-05
7.0622e-05
6.9226e-05
6.8383e-05
6.762e-05
6.6829e-05
6.6028e-05
6.5242e-05
6.4476e-05
6.3729e-05
6.2999e-05
6.2285e-05
6.1584e-05
6.0898e-05
6.0224e-05
5.9564e-05
5.8916e-05
5.828e-05
5.7657e-05
5.7047e-05
5.6449e-05
5.5864e-05
5.5292e-05
5.4734e-05
5.4189e-05
5.3659e-05
5.3144e-05
5.2644e-05
5.2161e-05
5.1693e-05
5.1243e-05
5.081e-05
5.0394e-05
4.9998e-05
4.962e-05
4.9261e-05
4.8921e-05
4.8601e-05
4.8301e-05
4.8021e-05
4.776e-05
4.7519e-05
4.7297e-05
4.7095e-05
4.6911e-05
4.6745e-05
4.6596e-05
4.6464e-05
4.6349e-05
4.6248e-05
4.6161e-05
4.6088e-05
4.6026e-05
4.5975e-05
4.5935e-05
4.5902e-05
4.5878e-05
4.586e-05
4.5847e-05
4.5839e-05
4.5835e-05
4.5833e-05
4.5832e-05
4.5833e-05
4.5839e-05
4.5849e-05
4.5853e-05
4.5806e-05
4.5669e-05
4.5636e-05
4.6172e-05
4.7641e-05
4.8279e-05
4.1351e-05
3.5415e-05
3.9688e-05
4.5496e-05
6.082e-05
1
1
1
1
1
1
1
1
1
1
1
1
1
1
1
1
1
1
1
1
1
1
1
1
1
1
1
1
1
1
1
1
1
1
0.99999
0.99999
0.99999
0.99999
0.99999
0.99999
0.99999
0.99999
0.99999
0.99999
0.99999
0.99999
0.99999
0.99999
0.99998
0.99998
0.99998
0.99998
0.99998
0.99998
0.99998
0.99998
0.99998
0.99998
0.99998
0.99998
0.99998
0.99998
0.99998
0.99998
0.99998
0.99998
0.99998
0.99998
0.99998
0.99998
0.99998
0.99998
0.99998
0.99998
0.99998
0.99998
0.99998
0.99998
0.99998
0.99998
0.99998
0.99998
0.99998
0.99998
0.99998
0.99998
0.99998
0.99998
0.99998
0.99998
0.99998
0.99998
0.99998
0.99997
0.99997
0.99997
0.99996
0.99996
0.99996
0.99995
0.99995
0.99995
0.99995
0.99995
0.99995
0.99995
0.99995
0.99995
0.99995
0.99995
0.99995
0.99995
0.99995
0.99995
0.99994
0.99994
0.99994
0.99994
0.99994
0.99994
0.99994
0.99994
0.99994
0.99994
0.99994
0.99994
0.99994
0.99994
0.99994
0.99994
0.99994
0.99994
0.99994
0.99994
0.99994
0.99994
0.99994
0.99994
0.99994
0.99994
0.99994
0.99994
0.99994
0.99994
0.99994
0.99994
0.99994
0.99994
0.99994
0.99994
0.99994
0.99994
0.99994
0.99994
0.99994
0.99994
0.99994
0.99995
0.99995
0.99995
0.99995
0.99995
0.99995
0.99995
0.99995
0.99995
0.99995
0.99995
0.99995
0.99995
0.99995
0.99995
0.99995
0.99995
0.99995
0.99995
0.99995
0.99995
0.99996
0.99996
0.99996
0.99996
0.99996
0.99996
0.99996
0.99996
0.99996
0.99996
0.99996
0.99996
0.99996
0.99996
0.99996
0.99996
0.99995
0.99995
0.99995
0.99995
0.99995
0.99995
0.99995
0.99995
0.99995
0.99995
0.99995
0.99995
0.99995
0.99995
0.99995
0.99995
0.99995
0.99994
0.99994
0.99994
0.99994
0.99994
0.99994
0.99994
0.99994
0.99994
0.99993
0.99993
0.99993
0.99993
0.99993
0.99993
0.99993
0.99993
0.99993
0.99993
0.99993
0.99993
0.99993
0.99993
0.99993
0.99993
0.99993
0.99993
0.99992
0.99992
0.99992
0.99992
0.99992
0.99992
0.99992
0.99991
0.99991
0.9999
0.9999
0.99989
0.99988
0.99987
0.99987
0.99985
0.99982
0.99977
0.99967
0.99955
0.99938
0.99922
0.99896
0.99843
0.99695
0.99295
0.98265
0.95954
0.91371
0.79427
0.43274
0.060628
0.0096284
0.0019004
0.00055417
0.00021086
0.00011829
9.9796e-05
0.0001351
0.00026133
0.00065578
0.0013443
0.0021502
0.0025893
0.0023823
0.0017687
0.0010662
0.00060687
0.00044345
0.00040771
0.00044459
0.00052073
0.00053528
0.00052313
0.00050796
0.00049659
0.00048909
0.00048495
0.00048287
0.00047907
0.00047385
0.00046767
0.00046099
0.00045458
0.00044865
0.00044445
0.00044096
0.00043834
0.00043475
0.00042926
0.0004191
0.00040709
0.00040214
0.00042616
0.00051796
0.00051927
0.00039697
0.00020647
9.3128e-05
5.413e-05
4.8731e-05
5.3469e-05
6.3863e-05
6.5217e-05
6.3316e-05
6.1488e-05
6.0358e-05
5.9635e-05
5.8966e-05
5.8274e-05
5.7579e-05
5.6899e-05
5.6238e-05
5.5594e-05
5.4965e-05
5.4349e-05
5.3747e-05
5.3156e-05
5.2576e-05
5.2008e-05
5.145e-05
5.0904e-05
5.0367e-05
4.9841e-05
4.9326e-05
4.8822e-05
4.8329e-05
4.7847e-05
4.7376e-05
4.6918e-05
4.6472e-05
4.6039e-05
4.5619e-05
4.5213e-05
4.4821e-05
4.4444e-05
4.4081e-05
4.3735e-05
4.3403e-05
4.3088e-05
4.2789e-05
4.2507e-05
4.2242e-05
4.1993e-05
4.176e-05
4.1544e-05
4.1345e-05
4.1162e-05
4.0994e-05
4.0842e-05
4.0704e-05
4.0581e-05
4.0472e-05
4.0375e-05
4.029e-05
4.0217e-05
4.0154e-05
4.0101e-05
4.0057e-05
4.002e-05
3.9991e-05
3.9967e-05
3.9949e-05
3.9935e-05
3.9925e-05
3.9918e-05
3.9913e-05
3.991e-05
3.9911e-05
3.9918e-05
3.992e-05
3.9878e-05
3.9756e-05
3.9728e-05
4.0204e-05
4.1506e-05
4.207e-05
3.5938e-05
3.0677e-05
3.4508e-05
3.9688e-05
5.304e-05
1
1
1
1
1
1
1
1
1
1
1
1
1
1
1
1
1
1
1
1
1
1
1
1
1
1
1
1
1
1
1
1
1
1
0.99999
0.99999
0.99999
0.99999
0.99999
0.99999
0.99999
0.99999
0.99999
0.99999
0.99999
0.99999
0.99999
0.99999
0.99999
0.99998
0.99998
0.99998
0.99998
0.99998
0.99998
0.99998
0.99998
0.99998
0.99998
0.99998
0.99998
0.99998
0.99998
0.99998
0.99998
0.99998
0.99998
0.99998
0.99998
0.99998
0.99998
0.99998
0.99998
0.99998
0.99998
0.99998
0.99998
0.99998
0.99998
0.99998
0.99998
0.99998
0.99998
0.99998
0.99998
0.99998
0.99998
0.99998
0.99998
0.99998
0.99997
0.99997
0.99997
0.99996
0.99995
0.99995
0.99994
0.99994
0.99994
0.99994
0.99994
0.99994
0.99995
0.99995
0.99995
0.99995
0.99995
0.99995
0.99995
0.99995
0.99995
0.99995
0.99995
0.99995
0.99995
0.99994
0.99994
0.99994
0.99994
0.99994
0.99994
0.99994
0.99994
0.99994
0.99994
0.99994
0.99994
0.99994
0.99994
0.99994
0.99994
0.99994
0.99994
0.99994
0.99994
0.99994
0.99994
0.99994
0.99994
0.99994
0.99994
0.99994
0.99994
0.99994
0.99994
0.99994
0.99994
0.99994
0.99994
0.99994
0.99994
0.99994
0.99994
0.99994
0.99994
0.99994
0.99995
0.99995
0.99995
0.99995
0.99995
0.99995
0.99995
0.99995
0.99995
0.99995
0.99995
0.99995
0.99995
0.99995
0.99995
0.99995
0.99995
0.99995
0.99995
0.99995
0.99995
0.99995
0.99995
0.99995
0.99995
0.99995
0.99996
0.99996
0.99996
0.99996
0.99996
0.99996
0.99996
0.99996
0.99996
0.99995
0.99995
0.99995
0.99995
0.99995
0.99995
0.99995
0.99995
0.99995
0.99995
0.99995
0.99995
0.99995
0.99995
0.99995
0.99995
0.99995
0.99995
0.99995
0.99995
0.99994
0.99994
0.99994
0.99994
0.99994
0.99994
0.99994
0.99994
0.99994
0.99993
0.99993
0.99993
0.99993
0.99993
0.99993
0.99993
0.99993
0.99993
0.99993
0.99993
0.99992
0.99992
0.99992
0.99992
0.99992
0.99992
0.99992
0.99992
0.99992
0.99992
0.99991
0.99991
0.99991
0.99991
0.9999
0.9999
0.99989
0.99989
0.99988
0.99987
0.99987
0.99986
0.99986
0.99985
0.99983
0.9998
0.99974
0.99966
0.99961
0.99957
0.99954
0.99942
0.9992
0.99873
0.99783
0.99621
0.99157
0.97386
0.8931
0.52671
0.050229
0.0059209
0.0010032
0.00027711
0.00013884
0.00014143
0.00026273
0.00059761
0.0012553
0.0019376
0.0020539
0.0016053
0.0010235
0.00058002
0.00041551
0.00037324
0.00039754
0.00045588
0.00049723
0.00049659
0.0004811
0.00046707
0.00045777
0.00045288
0.00045092
0.00044812
0.00044291
0.00043662
0.00042967
0.00042328
0.00041811
0.0004135
0.00041027
0.00040747
0.00040389
0.00039947
0.00039232
0.00038078
0.00037016
0.00037519
0.00042367
0.00048852
0.00038692
0.00022192
9.6731e-05
5.1841e-05
3.873e-05
4.4175e-05
5.2873e-05
5.8415e-05
5.802e-05
5.6172e-05
5.4734e-05
5.3844e-05
5.3215e-05
5.261e-05
5.1991e-05
5.1373e-05
5.0772e-05
5.0188e-05
4.962e-05
4.9067e-05
4.8525e-05
4.7995e-05
4.7476e-05
4.6968e-05
4.6469e-05
4.5979e-05
4.5499e-05
4.5028e-05
4.4566e-05
4.4113e-05
4.367e-05
4.3235e-05
4.2811e-05
4.2396e-05
4.1991e-05
4.1597e-05
4.1214e-05
4.0841e-05
4.0481e-05
4.0132e-05
3.9795e-05
3.9472e-05
3.9161e-05
3.8863e-05
3.8579e-05
3.8309e-05
3.8053e-05
3.7811e-05
3.7583e-05
3.737e-05
3.717e-05
3.6984e-05
3.6812e-05
3.6654e-05
3.6509e-05
3.6376e-05
3.6256e-05
3.6147e-05
3.605e-05
3.5963e-05
3.5886e-05
3.5819e-05
3.576e-05
3.5709e-05
3.5666e-05
3.5629e-05
3.5598e-05
3.5572e-05
3.5551e-05
3.5534e-05
3.5521e-05
3.551e-05
3.5503e-05
3.55e-05
3.5503e-05
3.5502e-05
3.5463e-05
3.5352e-05
3.5327e-05
3.576e-05
3.6935e-05
3.7441e-05
3.1898e-05
2.7158e-05
3.0677e-05
3.5415e-05
4.7705e-05
1
1
1
1
1
1
1
1
1
1
1
1
1
1
1
1
1
1
1
1
1
1
1
1
1
1
1
1
1
1
1
0.99999
0.99999
0.99999
0.99999
0.99999
0.99999
0.99999
0.99999
0.99999
0.99999
0.99999
0.99999
0.99999
0.99998
0.99998
0.99998
0.99998
0.99998
0.99998
0.99998
0.99998
0.99998
0.99998
0.99998
0.99998
0.99998
0.99997
0.99997
0.99997
0.99997
0.99997
0.99997
0.99997
0.99997
0.99997
0.99997
0.99997
0.99997
0.99997
0.99997
0.99997
0.99997
0.99997
0.99997
0.99997
0.99997
0.99997
0.99998
0.99998
0.99998
0.99998
0.99998
0.99998
0.99997
0.99997
0.99997
0.99996
0.99996
0.99995
0.99995
0.99994
0.99994
0.99993
0.99992
0.99992
0.99991
0.99992
0.99992
0.99993
0.99993
0.99993
0.99993
0.99994
0.99994
0.99993
0.99993
0.99993
0.99993
0.99993
0.99993
0.99993
0.99993
0.99993
0.99993
0.99993
0.99993
0.99993
0.99993
0.99993
0.99993
0.99993
0.99993
0.99993
0.99993
0.99993
0.99993
0.99993
0.99993
0.99993
0.99993
0.99993
0.99993
0.99993
0.99993
0.99993
0.99993
0.99993
0.99993
0.99993
0.99993
0.99993
0.99993
0.99993
0.99993
0.99993
0.99993
0.99993
0.99993
0.99993
0.99993
0.99993
0.99993
0.99993
0.99993
0.99993
0.99993
0.99993
0.99993
0.99993
0.99993
0.99993
0.99993
0.99994
0.99994
0.99994
0.99994
0.99994
0.99994
0.99994
0.99994
0.99994
0.99994
0.99994
0.99994
0.99994
0.99994
0.99994
0.99994
0.99994
0.99994
0.99994
0.99994
0.99994
0.99994
0.99994
0.99994
0.99994
0.99994
0.99994
0.99994
0.99994
0.99994
0.99994
0.99994
0.99994
0.99994
0.99994
0.99994
0.99994
0.99994
0.99994
0.99994
0.99994
0.99994
0.99994
0.99994
0.99993
0.99993
0.99993
0.99993
0.99993
0.99993
0.99993
0.99993
0.99993
0.99992
0.99992
0.99992
0.99992
0.99992
0.99992
0.99992
0.99991
0.99991
0.99991
0.99991
0.99991
0.99991
0.99991
0.9999
0.9999
0.9999
0.9999
0.9999
0.9999
0.9999
0.99989
0.99989
0.99989
0.99989
0.99988
0.99988
0.99988
0.99987
0.99987
0.99986
0.99986
0.99985
0.99984
0.99983
0.99983
0.99983
0.99983
0.99983
0.99983
0.99982
0.99981
0.99978
0.99977
0.99979
0.99981
0.99981
0.99979
0.99975
0.99969
0.99963
0.99944
0.99859
0.99485
0.97834
0.89694
0.50209
0.048229
0.0053459
0.00095879
0.00046609
0.00042515
0.00058637
0.0008554
0.0010469
0.0010125
0.0008052
0.000528
0.00041323
0.00039178
0.00042995
0.00050651
0.00057395
0.00058359
0.00056746
0.00054561
0.00053021
0.00052123
0.00051774
0.00051437
0.00050997
0.00050201
0.00049372
0.00048627
0.00048051
0.00047568
0.00047142
0.00046782
0.00046326
0.00045831
0.00045261
0.00044296
0.00042869
0.00041849
0.00043795
0.00052933
0.00053027
0.00033243
0.00015594
6.7337e-05
4.1229e-05
4.1537e-05
5.6407e-05
6.7939e-05
6.9522e-05
6.7374e-05
6.5188e-05
6.3786e-05
6.2894e-05
6.2179e-05
6.147e-05
6.0751e-05
6.0042e-05
5.9353e-05
5.8684e-05
5.8033e-05
5.7398e-05
5.6778e-05
5.6172e-05
5.5578e-05
5.4997e-05
5.4428e-05
5.3869e-05
5.3321e-05
5.2784e-05
5.2256e-05
5.1739e-05
5.1233e-05
5.0736e-05
5.0251e-05
4.9776e-05
4.9312e-05
4.886e-05
4.842e-05
4.7992e-05
4.7576e-05
4.7174e-05
4.6785e-05
4.641e-05
4.605e-05
4.5704e-05
4.5372e-05
4.5056e-05
4.4756e-05
4.447e-05
4.4201e-05
4.3946e-05
4.3708e-05
4.3485e-05
4.3277e-05
4.3083e-05
4.2905e-05
4.274e-05
4.259e-05
4.2452e-05
4.2327e-05
4.2214e-05
4.2113e-05
4.2022e-05
4.1941e-05
4.1869e-05
4.1807e-05
4.1752e-05
4.1705e-05
4.1664e-05
4.163e-05
4.1601e-05
4.1577e-05
4.1557e-05
4.1542e-05
4.1533e-05
4.1532e-05
4.1528e-05
4.148e-05
4.1351e-05
4.1321e-05
4.1819e-05
4.3172e-05
4.3755e-05
3.7379e-05
3.1898e-05
3.5938e-05
4.1351e-05
5.5461e-05
1
1
1
1
1
1
1
1
1
1
1
1
1
1
1
1
1
1
1
1
1
1
1
1
1
1
1
0.99999
0.99999
0.99999
0.99999
0.99999
0.99999
0.99999
0.99999
0.99999
0.99999
0.99999
0.99999
0.99998
0.99998
0.99998
0.99998
0.99998
0.99998
0.99998
0.99998
0.99998
0.99997
0.99997
0.99997
0.99997
0.99997
0.99997
0.99997
0.99997
0.99997
0.99997
0.99997
0.99997
0.99996
0.99996
0.99996
0.99996
0.99996
0.99996
0.99996
0.99996
0.99996
0.99996
0.99996
0.99996
0.99996
0.99997
0.99997
0.99997
0.99997
0.99997
0.99997
0.99997
0.99997
0.99996
0.99996
0.99996
0.99995
0.99994
0.99994
0.99992
0.99992
0.99991
0.9999
0.9999
0.9999
0.99989
0.9999
0.9999
0.99991
0.99991
0.99992
0.99992
0.99992
0.99992
0.99992
0.99992
0.99992
0.99992
0.99992
0.99992
0.99992
0.99992
0.99992
0.99992
0.99992
0.99992
0.99991
0.99991
0.99991
0.99991
0.99991
0.99991
0.99991
0.99991
0.99991
0.99991
0.99991
0.99991
0.99991
0.99991
0.99991
0.99991
0.99991
0.99991
0.99991
0.99991
0.99991
0.99991
0.99991
0.99991
0.99991
0.99991
0.99991
0.99991
0.99991
0.99991
0.99991
0.99991
0.99991
0.99991
0.99991
0.99991
0.99991
0.99991
0.99991
0.99991
0.99991
0.99991
0.99991
0.99991
0.99992
0.99992
0.99992
0.99992
0.99992
0.99992
0.99992
0.99992
0.99992
0.99992
0.99992
0.99992
0.99992
0.99992
0.99992
0.99992
0.99992
0.99992
0.99992
0.99992
0.99992
0.99993
0.99993
0.99993
0.99993
0.99993
0.99993
0.99993
0.99993
0.99993
0.99993
0.99993
0.99993
0.99993
0.99993
0.99993
0.99993
0.99993
0.99992
0.99992
0.99992
0.99992
0.99992
0.99992
0.99992
0.99992
0.99992
0.99992
0.99992
0.99992
0.99992
0.99992
0.99991
0.99991
0.99991
0.99991
0.99991
0.99991
0.99991
0.9999
0.9999
0.9999
0.9999
0.9999
0.99989
0.99989
0.99989
0.99989
0.99989
0.99988
0.99988
0.99988
0.99988
0.99987
0.99987
0.99987
0.99987
0.99986
0.99986
0.99986
0.99986
0.99985
0.99985
0.99984
0.99984
0.99983
0.99983
0.99982
0.99982
0.99981
0.9998
0.9998
0.99979
0.99979
0.99978
0.99979
0.99979
0.99981
0.99982
0.99983
0.99983
0.99983
0.99986
0.99988
0.99989
0.9999
0.99989
0.99989
0.99988
0.99988
0.99979
0.99955
0.99869
0.99518
0.97773
0.8919
0.43098
0.033522
0.0052456
0.0016768
0.00090769
0.00058825
0.00041845
0.00031768
0.00025018
0.00024898
0.00030859
0.00042124
0.0005601
0.00067217
0.00069626
0.00067958
0.00065158
0.00062446
0.00060784
0.00059851
0.00059341
0.00058778
0.0005812
0.00057019
0.00056009
0.00055291
0.00054739
0.00054292
0.00053926
0.00053453
0.00052829
0.00052223
0.0005155
0.00050348
0.00048651
0.00047773
0.00051415
0.00065719
0.00054155
0.00028073
0.00011542
5.9825e-05
4.335e-05
5.7676e-05
7.9421e-05
8.537e-05
8.2823e-05
7.9018e-05
7.6459e-05
7.4982e-05
7.3976e-05
7.3094e-05
7.2227e-05
7.1372e-05
7.054e-05
6.9733e-05
6.8949e-05
6.8185e-05
6.7439e-05
6.671e-05
6.5998e-05
6.5302e-05
6.4621e-05
6.3954e-05
6.33e-05
6.2659e-05
6.2031e-05
6.1415e-05
6.0811e-05
6.0219e-05
5.9639e-05
5.9071e-05
5.8516e-05
5.7974e-05
5.7446e-05
5.693e-05
5.6429e-05
5.5942e-05
5.5469e-05
5.5012e-05
5.4571e-05
5.4146e-05
5.3737e-05
5.3345e-05
5.297e-05
5.2612e-05
5.2272e-05
5.1949e-05
5.1643e-05
5.1356e-05
5.1085e-05
5.0831e-05
5.0595e-05
5.0375e-05
5.017e-05
4.9982e-05
4.9808e-05
4.9649e-05
4.9504e-05
4.9372e-05
4.9252e-05
4.9144e-05
4.9047e-05
4.8961e-05
4.8884e-05
4.8817e-05
4.8758e-05
4.8707e-05
4.8663e-05
4.8625e-05
4.8594e-05
4.8569e-05
4.8552e-05
4.8545e-05
4.8535e-05
4.8477e-05
4.8325e-05
4.8289e-05
4.8859e-05
5.0412e-05
5.1084e-05
4.3755e-05
3.7441e-05
4.207e-05
4.8279e-05
6.436e-05
1
1
1
1
1
1
1
1
1
1
1
1
1
1
1
1
1
1
1
1
1
1
1
1
1
1
0.99999
0.99999
0.99999
0.99999
0.99999
0.99999
0.99999
0.99999
0.99999
0.99999
0.99999
0.99998
0.99998
0.99998
0.99998
0.99998
0.99998
0.99998
0.99998
0.99997
0.99997
0.99997
0.99997
0.99997
0.99997
0.99997
0.99997
0.99997
0.99996
0.99996
0.99996
0.99996
0.99996
0.99996
0.99996
0.99996
0.99996
0.99996
0.99996
0.99996
0.99996
0.99996
0.99996
0.99996
0.99996
0.99996
0.99997
0.99997
0.99997
0.99997
0.99996
0.99996
0.99996
0.99996
0.99995
0.99994
0.99994
0.99993
0.99992
0.99991
0.9999
0.99989
0.99989
0.99988
0.99988
0.99989
0.9999
0.9999
0.99991
0.99991
0.99991
0.99991
0.99991
0.99991
0.99991
0.99991
0.99991
0.99991
0.99991
0.99991
0.99991
0.99991
0.99991
0.99991
0.99991
0.99991
0.99991
0.99991
0.99991
0.99991
0.99991
0.99991
0.99991
0.99991
0.99991
0.99991
0.99991
0.99991
0.99991
0.99991
0.99991
0.9999
0.9999
0.9999
0.9999
0.9999
0.9999
0.9999
0.9999
0.9999
0.9999
0.9999
0.9999
0.9999
0.9999
0.9999
0.9999
0.9999
0.9999
0.9999
0.9999
0.9999
0.9999
0.9999
0.9999
0.9999
0.99991
0.99991
0.99991
0.99991
0.99991
0.99991
0.99991
0.99991
0.99991
0.99991
0.99991
0.99991
0.99991
0.99991
0.99991
0.99991
0.99991
0.99991
0.99991
0.99991
0.99991
0.99992
0.99992
0.99992
0.99992
0.99992
0.99992
0.99992
0.99992
0.99992
0.99992
0.99992
0.99992
0.99992
0.99992
0.99992
0.99992
0.99992
0.99992
0.99992
0.99992
0.99992
0.99992
0.99992
0.99992
0.99992
0.99992
0.99992
0.99992
0.99992
0.99992
0.99991
0.99991
0.99991
0.99991
0.99991
0.99991
0.99991
0.99991
0.99991
0.99991
0.9999
0.9999
0.9999
0.9999
0.9999
0.9999
0.99989
0.99989
0.99989
0.99989
0.99988
0.99988
0.99988
0.99988
0.99987
0.99987
0.99987
0.99986
0.99986
0.99986
0.99985
0.99985
0.99985
0.99984
0.99984
0.99983
0.99983
0.99983
0.99982
0.99981
0.99981
0.9998
0.9998
0.99979
0.99978
0.99978
0.99977
0.99977
0.99977
0.99977
0.99977
0.99978
0.99979
0.9998
0.99982
0.99984
0.99985
0.99988
0.99989
0.99989
0.9999
0.9999
0.9999
0.99991
0.99993
0.99992
0.9999
0.9998
0.9995
0.99841
0.99346
0.96745
0.81614
0.21016
0.022581
0.0038253
0.00089341
0.00030057
0.00012438
8.8494e-05
0.00010402
0.00017156
0.00031362
0.00048998
0.00061785
0.00067043
0.00067559
0.00065875
0.00063696
0.00062182
0.00061
0.00060174
0.00059379
0.00058586
0.00057414
0.00056444
0.00055741
0.00055217
0.00054845
0.00054377
0.00053806
0.00053116
0.00052528
0.00051913
0.00050713
0.00048992
0.00048345
0.00052859
0.00069472
0.00046769
0.00022776
9.2703e-05
5.2032e-05
4.1698e-05
6.6673e-05
8.5241e-05
8.791e-05
8.402e-05
7.998e-05
7.7428e-05
7.5839e-05
7.4626e-05
7.3545e-05
7.2545e-05
7.1615e-05
7.0742e-05
6.9907e-05
6.91e-05
6.8313e-05
6.7543e-05
6.6791e-05
6.6055e-05
6.5336e-05
6.4633e-05
6.3945e-05
6.3271e-05
6.2612e-05
6.1966e-05
6.1333e-05
6.0714e-05
6.0107e-05
5.9512e-05
5.8931e-05
5.8363e-05
5.7808e-05
5.7266e-05
5.6739e-05
5.6226e-05
5.5727e-05
5.5243e-05
5.4775e-05
5.4322e-05
5.3885e-05
5.3465e-05
5.3062e-05
5.2675e-05
5.2306e-05
5.1954e-05
5.1619e-05
5.1302e-05
5.1002e-05
5.0719e-05
5.0453e-05
5.0204e-05
4.9971e-05
4.9754e-05
4.9552e-05
4.9365e-05
4.9193e-05
4.9035e-05
4.889e-05
4.8757e-05
4.8637e-05
4.8528e-05
4.8429e-05
4.8341e-05
4.8263e-05
4.8193e-05
4.8132e-05
4.8079e-05
4.8033e-05
4.7993e-05
4.7961e-05
4.7937e-05
4.7925e-05
4.791e-05
4.7848e-05
4.7694e-05
4.7654e-05
4.8215e-05
4.9749e-05
5.0412e-05
4.3172e-05
3.6935e-05
4.1506e-05
4.7641e-05
6.3515e-05
1
1
1
1
1
1
1
1
1
1
1
1
1
1
1
1
1
1
1
1
1
1
1
1
0.99999
0.99999
0.99999
0.99999
0.99999
0.99999
0.99999
0.99999
0.99999
0.99999
0.99999
0.99999
0.99998
0.99998
0.99998
0.99998
0.99998
0.99998
0.99998
0.99997
0.99997
0.99997
0.99997
0.99997
0.99997
0.99997
0.99996
0.99996
0.99996
0.99996
0.99996
0.99996
0.99996
0.99996
0.99996
0.99996
0.99995
0.99995
0.99995
0.99995
0.99995
0.99996
0.99996
0.99996
0.99996
0.99996
0.99996
0.99996
0.99996
0.99996
0.99995
0.99995
0.99995
0.99994
0.99994
0.99993
0.99992
0.99991
0.9999
0.99989
0.99988
0.99988
0.99988
0.99988
0.99989
0.99989
0.9999
0.9999
0.9999
0.9999
0.9999
0.9999
0.9999
0.9999
0.9999
0.9999
0.9999
0.9999
0.9999
0.9999
0.9999
0.9999
0.9999
0.9999
0.9999
0.9999
0.9999
0.9999
0.9999
0.9999
0.9999
0.9999
0.9999
0.9999
0.9999
0.9999
0.9999
0.9999
0.9999
0.9999
0.9999
0.9999
0.9999
0.9999
0.9999
0.9999
0.9999
0.9999
0.9999
0.9999
0.9999
0.9999
0.9999
0.9999
0.9999
0.9999
0.9999
0.9999
0.9999
0.9999
0.9999
0.9999
0.9999
0.9999
0.9999
0.9999
0.9999
0.9999
0.9999
0.9999
0.9999
0.9999
0.9999
0.9999
0.9999
0.9999
0.9999
0.9999
0.9999
0.9999
0.9999
0.9999
0.9999
0.99991
0.99991
0.99991
0.99991
0.99991
0.99991
0.99991
0.99991
0.99991
0.99991
0.99991
0.99991
0.99991
0.99991
0.99991
0.99991
0.99991
0.99991
0.99991
0.99991
0.99991
0.99991
0.99991
0.99991
0.99991
0.99991
0.99991
0.99991
0.99991
0.99991
0.99991
0.99991
0.99991
0.99991
0.99991
0.99991
0.99991
0.99991
0.99991
0.99991
0.9999
0.9999
0.9999
0.9999
0.9999
0.9999
0.9999
0.9999
0.99989
0.99989
0.99989
0.99989
0.99989
0.99988
0.99988
0.99988
0.99988
0.99987
0.99987
0.99987
0.99986
0.99986
0.99985
0.99985
0.99985
0.99984
0.99984
0.99983
0.99983
0.99982
0.99982
0.99981
0.99981
0.9998
0.9998
0.99979
0.99978
0.99978
0.99977
0.99977
0.99976
0.99976
0.99975
0.99975
0.99975
0.99975
0.99976
0.99976
0.99977
0.99978
0.99979
0.9998
0.99981
0.99982
0.99984
0.99986
0.99988
0.99989
0.9999
0.99991
0.99993
0.99994
0.99994
0.99991
0.99984
0.9996
0.99903
0.99695
0.98548
0.92766
0.65559
0.084408
0.0078833
0.00099988
0.00020674
8.3204e-05
7.0251e-05
9.5582e-05
0.00016316
0.00025553
0.00037807
0.00049278
0.00057695
0.00061913
0.00062926
0.00062514
0.00061497
0.00060483
0.00059437
0.00058445
0.00057288
0.0005635
0.00055653
0.00055125
0.00054656
0.00054071
0.0005344
0.00052768
0.00052269
0.00051758
0.00050603
0.00048941
0.0004839
0.0005282
0.0006901
0.00045952
0.00021972
8.7144e-05
4.7681e-05
3.7603e-05
6.0177e-05
7.854e-05
8.3461e-05
8.2011e-05
7.9483e-05
7.7522e-05
7.5912e-05
7.4417e-05
7.3016e-05
7.1766e-05
7.0671e-05
6.9705e-05
6.8824e-05
6.7995e-05
6.7197e-05
6.6421e-05
6.5662e-05
6.492e-05
6.4193e-05
6.3482e-05
6.2787e-05
6.2107e-05
6.1442e-05
6.0791e-05
6.0154e-05
5.953e-05
5.892e-05
5.8323e-05
5.774e-05
5.717e-05
5.6613e-05
5.607e-05
5.5541e-05
5.5026e-05
5.4525e-05
5.404e-05
5.3569e-05
5.3115e-05
5.2675e-05
5.2252e-05
5.1846e-05
5.1455e-05
5.1082e-05
5.0725e-05
5.0385e-05
5.0062e-05
4.9756e-05
4.9466e-05
4.9193e-05
4.8936e-05
4.8695e-05
4.8469e-05
4.8258e-05
4.8062e-05
4.788e-05
4.7711e-05
4.7556e-05
4.7413e-05
4.7282e-05
4.7162e-05
4.7054e-05
4.6955e-05
4.6867e-05
4.6788e-05
4.6717e-05
4.6655e-05
4.6601e-05
4.6554e-05
4.6514e-05
4.6484e-05
4.6465e-05
4.6445e-05
4.638e-05
4.6226e-05
4.6184e-05
4.6726e-05
4.8215e-05
4.8859e-05
4.1819e-05
3.576e-05
4.0204e-05
4.6172e-05
6.1623e-05
1
1
1
1
1
1
1
1
1
1
1
1
1
1
1
1
1
1
1
1
1
1
0.99999
0.99999
0.99999
0.99999
0.99999
0.99999
0.99999
0.99999
0.99999
0.99999
0.99999
0.99999
0.99998
0.99998
0.99998
0.99998
0.99998
0.99998
0.99998
0.99997
0.99997
0.99997
0.99997
0.99997
0.99997
0.99996
0.99996
0.99996
0.99996
0.99996
0.99996
0.99996
0.99995
0.99995
0.99995
0.99995
0.99995
0.99995
0.99995
0.99995
0.99995
0.99995
0.99995
0.99996
0.99996
0.99996
0.99996
0.99996
0.99995
0.99995
0.99995
0.99994
0.99993
0.99992
0.99991
0.9999
0.9999
0.99989
0.99988
0.99987
0.99986
0.99986
0.99986
0.99987
0.99988
0.99989
0.99989
0.99989
0.99989
0.9999
0.9999
0.9999
0.9999
0.9999
0.99989
0.99989
0.99989
0.99989
0.99989
0.99989
0.99989
0.99989
0.99989
0.99989
0.99989
0.99989
0.99989
0.99989
0.99989
0.99989
0.99989
0.99989
0.99989
0.99989
0.99989
0.99989
0.99989
0.99989
0.9999
0.99989
0.99989
0.99989
0.99989
0.99989
0.99989
0.99989
0.99989
0.99989
0.99989
0.99989
0.99989
0.99989
0.99989
0.99989
0.99989
0.99989
0.99989
0.99989
0.99989
0.99989
0.99989
0.99989
0.99989
0.99989
0.99989
0.99989
0.99989
0.99989
0.99989
0.99989
0.99989
0.99989
0.99989
0.99989
0.99989
0.99989
0.99989
0.99989
0.99989
0.99989
0.99989
0.99989
0.99989
0.99989
0.99989
0.9999
0.9999
0.9999
0.9999
0.9999
0.9999
0.9999
0.9999
0.9999
0.9999
0.9999
0.9999
0.9999
0.9999
0.9999
0.9999
0.9999
0.9999
0.9999
0.9999
0.9999
0.9999
0.9999
0.9999
0.9999
0.9999
0.9999
0.9999
0.9999
0.9999
0.9999
0.9999
0.9999
0.9999
0.9999
0.9999
0.9999
0.9999
0.9999
0.9999
0.9999
0.9999
0.99989
0.99989
0.99989
0.99989
0.99989
0.99989
0.99989
0.99989
0.99988
0.99988
0.99988
0.99988
0.99987
0.99987
0.99987
0.99986
0.99986
0.99985
0.99985
0.99984
0.99984
0.99983
0.99983
0.99982
0.99982
0.99981
0.99981
0.9998
0.99979
0.99979
0.99978
0.99977
0.99977
0.99976
0.99975
0.99974
0.99974
0.99973
0.99973
0.99973
0.99973
0.99973
0.99973
0.99973
0.99974
0.99974
0.99975
0.99976
0.99976
0.99977
0.99978
0.99978
0.99979
0.99979
0.9998
0.99982
0.99985
0.99989
0.99993
0.99994
0.99994
0.99992
0.99986
0.99977
0.99961
0.99922
0.99796
0.99379
0.97789
0.90355
0.50183
0.02995
0.0024475
0.00038375
0.00014711
9.3878e-05
9.0969e-05
0.00010982
0.00016276
0.00025068
0.00036336
0.00047483
0.00055657
0.00060126
0.00061459
0.00061286
0.00060416