/*--------------------------------*- C++ -*----------------------------------*\
| =========                 |                                                 |
| \\      /  F ield         | OpenFOAM: The Open Source CFD Toolbox           |
|  \\    /   O peration     | Version:  5.x                                   |
|   \\  /    A nd           | Web:      www.OpenFOAM.org                      |
|    \\/     M anipulation  |                                                 |
\*---------------------------------------------------------------------------*/
FoamFile
{
    version     2.0;
    format      ascii;
    class       volSymmTensorField;
    location    "45";
    object      sigmaD;
}
// * * * * * * * * * * * * * * * * * * * * * * * * * * * * * * * * * * * * * //

dimensions      [0 2 -2 0 0 0 0];

internalField   nonuniform List<symmTensor> 
80000
(
(51523 3761.4 0 2776.3 0 12531)
(39152 1526.8 0 175.74 0 9075.7)
(34956 776.75 0 -71.66 0 8050.1)
(32608 517.74 0 -15.894 0 7521.1)
(30950 403.23 0 20.546 0 7147)
(29636 334.94 0 29.208 0 6845.9)
(28538 287.2 0 28.014 0 6592.2)
(27590 252.06 0 25.14 0 6372.7)
(26751 225.65 0 22.744 0 6178.6)
(25995 205.47 0 21.022 0 6003.6)
(25300 189.72 0 19.767 0 5843.1)
(24655 177.13 0 18.776 0 5694.1)
(24050 166.81 0 17.922 0 5554.1)
(23477 158.13 0 17.131 0 5421.8)
(22932 150.63 0 16.364 0 5295.9)
(22412 144 0 15.603 0 5175.6)
(21913 138 0 14.841 0 5060.3)
(21435 132.46 0 14.079 0 4949.7)
(20975 127.26 0 13.318 0 4843.4)
(20533 122.3 0 12.564 0 4741.2)
(20108 117.52 0 11.822 0 4642.9)
(19699 112.86 0 11.099 0 4548.5)
(19307 108.29 0 10.4 0 4457.9)
(18931 103.79 0 9.7299 0 4370.9)
(18571 99.323 0 9.0943 0 4287.7)
(18226 94.884 0 8.4972 0 4208.1)
(17898 90.46 0 7.9428 0 4132.1)
(17585 86.043 0 7.4347 0 4059.8)
(17288 81.629 0 6.9759 0 3991.2)
(17007 77.215 0 6.5694 0 3926.2)
(16742 72.8 0 6.2177 0 3864.9)
(16492 68.385 0 5.9231 0 3807.2)
(16258 63.972 0 5.6873 0 3753.2)
(16041 59.566 0 5.5121 0 3702.9)
(15838 55.174 0 5.3987 0 3656.3)
(15652 50.803 0 5.348 0 3613.3)
(15482 46.465 0 5.3605 0 3573.9)
(15326 42.174 0 5.4362 0 3538.1)
(15187 37.945 0 5.5745 0 3505.9)
(15062 33.8 0 5.7739 0 3477.2)
(14952 29.762 0 6.0322 0 3451.9)
(14857 25.859 0 6.3463 0 3429.9)
(14775 22.124 0 6.7118 0 3411.2)
(14706 18.592 0 7.1232 0 3395.4)
(14650 15.302 0 7.5737 0 3382.5)
(14605 12.298 0 8.0552 0 3372.3)
(14570 9.6231 0 8.5585 0 3364.4)
(14545 7.3216 0 9.0732 0 3358.5)
(14526 5.4352 0 9.5883 0 3354.4)
(14514 4.0006 0 10.092 0 3351.7)
(14505 3.0464 0 10.573 0 3349.8)
(14499 2.5899 0 11.021 0 3348.6)
(14494 2.6339 0 11.426 0 3347.4)
(14487 3.1642 0 11.778 0 3345.9)
(14477 4.1483 0 12.072 0 3343.7)
(14462 5.5344 0 12.301 0 3340.3)
(14442 7.2534 0 12.464 0 3335.6)
(14414 9.2217 0 12.557 0 3329.2)
(14378 11.346 0 12.58 0 3320.9)
(14334 13.529 0 12.534 0 3310.7)
(14282 15.675 0 12.42 0 3298.7)
(14222 17.701 0 12.239 0 3284.7)
(14154 19.535 0 11.994 0 3269.1)
(14080 21.124 0 11.688 0 3252)
(14001 22.438 0 11.326 0 3233.5)
(13917 23.464 0 10.913 0 3214.1)
(13830 24.211 0 10.458 0 3193.9)
(13740 24.699 0 9.9661 0 3173.2)
(13650 24.962 0 9.4473 0 3152.1)
(13558 25.038 0 8.9097 0 3130.9)
(13467 24.967 0 8.3612 0 3109.8)
(13377 24.79 0 7.8087 0 3088.7)
(13287 24.54 0 7.2583 0 3067.9)
(13198 24.249 0 6.7142 0 3047.2)
(13110 23.942 0 6.1796 0 3026.9)
(13024 23.636 0 5.6562 0 3006.8)
(12939 23.346 0 5.1446 0 2987)
(12854 23.081 0 4.6448 0 2967.5)
(12771 22.843 0 4.1559 0 2948.2)
(12689 22.636 0 3.6768 0 2929)
(12607 22.458 0 3.2063 0 2910)
(12526 22.305 0 2.7429 0 2891.2)
(12445 22.173 0 2.2853 0 2872.5)
(12365 22.056 0 1.8324 0 2853.9)
(12285 21.946 0 1.3834 0 2835.4)
(12206 21.836 0 0.93789 0 2817)
(12127 21.717 0 0.49664 0 2798.6)
(12048 21.577 0 0.060291 0 2780.4)
(11970 21.406 0 -0.37058 0 2762.3)
(11893 21.191 0 -0.79445 0 2744.3)
(11817 20.92 0 -1.2094 0 2726.6)
(11741 20.581 0 -1.6136 0 2709.1)
(11667 20.163 0 -2.0031 0 2692)
(11595 19.653 0 -2.3721 0 2675.2)
(11525 19.04 0 -2.7195 0 2658.9)
(11457 18.319 0 -3.0431 0 2643.2)
(11392 17.487 0 -3.3366 0 2628.2)
(11331 16.548 0 -3.6006 0 2613.9)
(11273 15.516 0 -3.8355 0 2600.5)
(11219 14.408 0 -4.0346 0 2588)
(11169 13.249 0 -4.1977 0 2576.5)
(11124 12.064 0 -4.3299 0 2566)
(11083 10.889 0 -4.4327 0 2556.6)
(11046 9.7686 0 -4.5132 0 2548.1)
(11014 8.7532 0 -4.5782 0 2540.6)
(10985 7.885 0 -4.6233 0 2533.9)
(10959 7.1897 0 -4.6488 0 2527.9)
(10935 6.6869 0 -4.6612 0 2522.4)
(10913 6.386 0 -4.6639 0 2517.2)
(10891 6.2839 0 -4.6593 0 2512.2)
(10869 6.3639 0 -4.6502 0 2507.2)
(10847 6.5975 0 -4.6392 0 2502.1)
(10823 6.9464 0 -4.6289 0 2496.6)
(10798 7.3658 0 -4.6212 0 2490.9)
(10772 7.8075 0 -4.6178 0 2484.7)
(10743 8.2238 0 -4.6194 0 2478.2)
(10713 8.5704 0 -4.6264 0 2471.3)
(10682 8.8092 0 -4.6379 0 2464.1)
(10651 8.911 0 -4.6526 0 2456.8)
(10619 8.8564 0 -4.6686 0 2449.4)
(10588 8.6372 0 -4.6834 0 2442.2)
(10557 8.256 0 -4.6942 0 2435.2)
(10529 7.7257 0 -4.6984 0 2428.6)
(10502 7.0682 0 -4.6933 0 2422.6)
(10479 6.312 0 -4.6763 0 2417.1)
(10458 5.4903 0 -4.6453 0 2412.3)
(10440 4.6381 0 -4.5983 0 2408.3)
(10426 3.7895 0 -4.5338 0 2405)
(10415 2.9754 0 -4.4508 0 2402.4)
(10406 2.2214 0 -4.3488 0 2400.5)
(10401 1.547 0 -4.228 0 2399.2)
(10397 0.96422 0 -4.0891 0 2398.4)
(10396 0.47857 0 -3.9337 0 2398.1)
(10396 0.089345 0 -3.7639 0 2398.2)
(10397 -0.20909 0 -3.5823 0 2398.6)
(10400 -0.42606 0 -3.392 0 2399.2)
(10403 -0.57332 0 -3.196 0 2399.9)
(10406 -0.66408 0 -2.9969 0 2400.7)
(10410 -0.71235 0 -2.7972 0 2401.6)
(10413 -0.73251 0 -2.5986 0 2402.5)
(10417 -0.73919 0 -2.4021 0 2403.4)
(10421 -0.74725 0 -2.208 0 2404.3)
(10424 -0.77166 0 -2.0161 0 2405.1)
(10428 -0.82737 0 -1.8254 0 2406)
(10432 -0.92896 0 -1.6348 0 2407)
(10436 -1.09 0 -1.4427 0 2408.1)
(10441 -1.3226 0 -1.2475 0 2409.3)
(10447 -1.6365 0 -1.0473 0 2410.7)
(10455 -2.0384 0 -0.84032 0 2412.4)
(10464 -2.5318 0 -0.62468 0 2414.5)
(10474 -3.1161 0 -0.39856 0 2417.1)
(10488 -3.7871 0 -0.16016 0 2420.2)
(10503 -4.5364 0 0.092104 0 2423.9)
(10522 -5.3522 0 0.35952 0 2428.2)
(10544 -6.2187 0 0.64291 0 2433.3)
(10569 -7.1169 0 0.94244 0 2439.1)
(10597 -8.0248 0 1.2574 0 2445.7)
(10629 -8.9171 0 1.5862 0 2453.1)
(10663 -9.7659 0 1.9261 0 2461.2)
(10701 -10.541 0 2.2731 0 2470)
(10741 -11.212 0 2.6226 0 2479.4)
(10784 -11.747 0 2.9686 0 2489.3)
(10828 -12.116 0 3.3048 0 2499.6)
(10873 -12.292 0 3.6247 0 2510.1)
(10919 -12.256 0 3.9219 0 2520.6)
(10964 -11.995 0 4.1904 0 2531)
(11007 -11.51 0 4.4255 0 2541)
(11048 -10.813 0 4.6239 0 2550.5)
(11085 -9.9303 0 4.7835 0 2559.3)
(11119 -8.9049 0 4.9042 0 2567.1)
(11149 -7.7911 0 4.9873 0 2574)
(11175 -6.6539 0 5.0353 0 2579.9)
(11196 -5.5639 0 5.0516 0 2584.8)
(11213 -4.5922 0 5.0402 0 2588.8)
(11227 -3.8041 0 5.0053 0 2592)
(11238 -3.2536 0 4.9514 0 2594.5)
(11248 -2.9787 0 4.8827 0 2596.7)
(11257 -2.9976 0 4.8038 0 2598.8)
(11266 -3.3088 0 4.7195 0 2601)
(11278 -3.8909 0 4.6352 0 2603.6)
(11292 -4.7069 0 4.5568 0 2606.8)
(11309 -5.708 0 4.4909 0 2610.8)
(11330 -6.8401 0 4.4445 0 2615.7)
(11356 -8.0488 0 4.4251 0 2621.7)
(11387 -9.2851 0 4.4401 0 2628.7)
(11422 -10.508 0 4.4963 0 2636.8)
(11461 -11.689 0 4.5994 0 2646)
(11505 -12.805 0 4.7528 0 2656.2)
(11553 -13.844 0 4.9578 0 2667.3)
(11605 -14.793 0 5.2121 0 2679.3)
(11660 -15.637 0 5.51 0 2692.1)
(11719 -16.352 0 5.8425 0 2705.7)
(11779 -16.905 0 6.1977 0 2719.8)
(11842 -17.247 0 6.5615 0 2734.3)
(11905 -17.323 0 6.9196 0 2749)
(11969 -17.071 0 7.2582 0 2763.6)
(12030 -16.435 0 7.5659 0 2778)
(12089 -15.376 0 7.8345 0 2791.5)
(12143 -13.878 0 8.0596 0 2804)
(12190 -11.961 0 8.2399 0 2815)
(12230 -9.6778 0 8.3764 0 2824.2)
(12261 -7.1205 0 8.471 0 2831.3)
(12281 -4.407 0 8.5254 0 2836.1)
(12292 -1.6731 0 8.5398 0 2838.6)
(12292 0.94214 0 8.5133 0 2838.7)
(12284 3.3094 0 8.4441 0 2836.6)
(12266 5.3204 0 8.3314 0 2832.6)
(12243 6.8947 0 8.1762 0 2827.1)
(12214 7.9823 0 7.9832 0 2820.4)
(12182 8.5614 0 7.7612 0 2813)
(12149 8.633 0 7.5232 0 2805.3)
(12117 8.2143 0 7.2856 0 2797.8)
(12087 7.3316 0 7.0673 0 2790.9)
(12061 6.0148 0 6.8881 0 2784.9)
(12041 4.2937 0 6.7675 0 2780.3)
(12028 2.197 0 6.7236 0 2777.4)
(12024 -0.24703 0 6.7725 0 2776.4)
(12030 -3.008 0 6.9273 0 2777.7)
(12047 -6.0504 0 7.1989 0 2781.6)
(12075 -9.33 0 7.5949 0 2788.3)
(12116 -12.791 0 8.1206 0 2797.9)
(12171 -16.366 0 8.7784 0 2810.6)
(12239 -19.97 0 9.5681 0 2826.5)
(12320 -23.508 0 10.486 0 2845.6)
(12415 -26.869 0 11.527 0 2867.7)
(12522 -29.936 0 12.681 0 2892.6)
(12640 -32.584 0 13.935 0 2920.1)
(12767 -34.686 0 15.274 0 2949.8)
(12901 -36.122 0 16.681 0 2981.1)
(13040 -36.78 0 18.136 0 3013.3)
(13179 -36.571 0 19.619 0 3045.9)
(13316 -35.426 0 21.109 0 3077.9)
(13448 -33.31 0 22.587 0 3108.6)
(13570 -30.218 0 24.033 0 3137.2)
(13680 -26.183 0 25.428 0 3162.7)
(13773 -21.266 0 26.753 0 3184.5)
(13846 -15.555 0 27.989 0 3201.7)
(13897 -9.1573 0 29.118 0 3213.8)
(13924 -2.1891 0 30.121 0 3220.2)
(13924 5.232 0 30.981 0 3220.5)
(13897 12.997 0 31.682 0 3214.3)
(13840 21.009 0 32.21 0 3201.3)
(13754 29.194 0 32.551 0 3181.5)
(13638 37.497 0 32.696 0 3154.7)
(13491 45.888 0 32.634 0 3120.8)
(13313 54.358 0 32.357 0 3079.8)
(13105 62.918 0 31.856 0 3031.5)
(12865 71.599 0 31.121 0 2975.9)
(12593 80.442 0 30.14 0 2912.9)
(12288 89.507 0 28.899 0 2842.3)
(11949 98.865 0 27.372 0 2763.8)
(11576 108.62 0 25.522 0 2677.2)
(11166 118.87 0 23.301 0 2582.1)
(10717 129.78 0 20.649 0 2477.8)
(10225 141.46 0 17.459 0 2363.6)
(9687.7 154.14 0 13.53 0 2238.7)
(9099.2 168.15 0 8.5128 0 2101.8)
(8453.6 184.05 0 1.8776 0 1951.3)
(7740.4 202.71 0 -6.9584 0 1784.6)
(6944.1 225.19 0 -18.294 0 1598.3)
(6042 253.38 0 -31.349 0 1387.1)
(5006.3 292.09 0 -43.121 0 1145.3)
(3815.7 347.52 0 -46.653 0 869.79)
(2318.3 354.93 0 -34.044 0 527.14)
(293.01 45.184 0 5.2947 0 68.84)
(0.28089 0.025395 0 0.0087295 0 0.066836)
(0.0013247 6.9026e-05 0 3.0123e-05 0 0.00031265)
(0.0001082 2.9411e-06 0 1.6558e-06 0 2.5351e-05)
(8.0234e-05 2.1028e-06 0 6.9362e-07 0 1.8675e-05)
(9.0031e-05 1.5339e-06 0 1.3518e-06 0 2.1088e-05)
(8.9779e-05 4.6758e-07 0 2.9681e-07 0 2.0787e-05)
(9.0992e-05 2.4023e-07 0 2.9135e-07 0 2.1065e-05)
(9.1465e-05 1.7906e-07 0 1.6184e-07 0 2.1145e-05)
(9.1517e-05 1.3719e-07 0 -1.3728e-08 0 2.1116e-05)
(9.1358e-05 1.4858e-07 0 -1.3503e-07 0 2.1051e-05)
(9.0583e-05 1.9537e-07 0 -1.6448e-07 0 2.0866e-05)
(8.9318e-05 1.6514e-07 0 -1.241e-07 0 2.0583e-05)
(8.787e-05 2.3224e-08 0 1.5699e-08 0 2.0281e-05)
(8.5412e-05 -9.8237e-08 0 3.3485e-07 0 1.9788e-05)
(7.7732e-05 -5.441e-07 0 4.8603e-07 0 1.805e-05)
(8.3434e-05 -1.712e-06 0 1.9108e-07 0 1.9298e-05)
(9.63e-05 -3.1589e-06 0 -9.0841e-07 0 2.2013e-05)
(0.00011993 -3.3124e-06 0 -2.1033e-06 0 2.7192e-05)
(0.00014617 5.6562e-07 0 -2.6922e-06 0 3.3111e-05)
(0.00011421 3.7686e-06 0 -1.472e-06 0 2.6015e-05)
(9.2804e-05 3.6756e-06 0 -5.1634e-07 0 2.1297e-05)
(8.4482e-05 2.2579e-06 0 5.0387e-08 0 1.9507e-05)
(8.5348e-05 1.2702e-06 0 1.5125e-07 0 1.9731e-05)
(8.2198e-05 7.8219e-07 0 6.8779e-08 0 1.8985e-05)
(8.066e-05 5.6867e-07 0 2.487e-08 0 1.862e-05)
(7.8558e-05 4.6453e-07 0 -4.1101e-09 0 1.8128e-05)
(7.6762e-05 3.8109e-07 0 -1.6366e-08 0 1.7711e-05)
(7.5428e-05 2.9891e-07 0 -3.2542e-08 0 1.7399e-05)
(7.4457e-05 2.2322e-07 0 -4.9819e-08 0 1.7171e-05)
(7.3742e-05 1.5754e-07 0 -6.2631e-08 0 1.7003e-05)
(7.3273e-05 1.0252e-07 0 -7.0967e-08 0 1.6893e-05)
(7.3001e-05 5.8464e-08 0 -7.6129e-08 0 1.6829e-05)
(7.2864e-05 2.3929e-08 0 -7.8961e-08 0 1.6797e-05)
(7.286e-05 -1.8061e-09 0 -8.0152e-08 0 1.6795e-05)
(7.2912e-05 -2.0196e-08 0 -7.9547e-08 0 1.6807e-05)
(7.3024e-05 -3.4135e-08 0 -7.7302e-08 0 1.6834e-05)
(7.3176e-05 -4.5175e-08 0 -7.3915e-08 0 1.687e-05)
(7.336e-05 -5.4409e-08 0 -6.9841e-08 0 1.6913e-05)
(7.3583e-05 -6.217e-08 0 -6.5714e-08 0 1.6966e-05)
(7.3834e-05 -6.8205e-08 0 -6.1526e-08 0 1.7024e-05)
(7.4101e-05 -7.2719e-08 0 -5.7226e-08 0 1.7087e-05)
(7.4396e-05 -7.5356e-08 0 -5.2975e-08 0 1.7156e-05)
(7.4704e-05 -7.5451e-08 0 -4.8096e-08 0 1.7228e-05)
(7.4996e-05 -7.3834e-08 0 -4.1705e-08 0 1.7297e-05)
(7.5273e-05 -7.246e-08 0 -3.3512e-08 0 1.7363e-05)
(7.5515e-05 -7.5239e-08 0 -2.2086e-08 0 1.7421e-05)
(7.5729e-05 -9.0638e-08 0 -4.6244e-09 0 1.7475e-05)
(7.5803e-05 -1.3859e-07 0 -3.183e-09 0 1.7492e-05)
(7.6687e-05 -1.6932e-07 0 -9.4265e-08 0 1.7675e-05)
(8.0403e-05 3.2075e-08 0 -1.6986e-07 0 1.8515e-05)
(7.5933e-05 2.1679e-07 0 -5.8809e-08 0 1.7509e-05)
(7.549e-05 1.6104e-07 0 2.6988e-08 0 1.7427e-05)
(7.5428e-05 9.3742e-08 0 1.4747e-08 0 1.741e-05)
(7.5213e-05 6.7771e-08 0 4.8875e-10 0 1.7357e-05)
(7.4979e-05 6.4065e-08 0 -3.0441e-09 0 1.7302e-05)
(7.475e-05 6.8512e-08 0 -3.4777e-09 0 1.7249e-05)
(7.4501e-05 7.6196e-08 0 -3.2562e-09 0 1.7192e-05)
(7.4225e-05 8.5432e-08 0 -2.5586e-09 0 1.7128e-05)
(7.3916e-05 9.5625e-08 0 -1.5387e-09 0 1.7057e-05)
(7.357e-05 1.0653e-07 0 -3.3148e-10 0 1.6978e-05)
(7.3185e-05 1.1798e-07 0 9.6719e-10 0 1.6889e-05)
(7.2759e-05 1.2988e-07 0 2.288e-09 0 1.6791e-05)
(7.229e-05 1.4214e-07 0 3.582e-09 0 1.6683e-05)
(7.1777e-05 1.5469e-07 0 4.817e-09 0 1.6565e-05)
(7.1219e-05 1.6751e-07 0 5.9725e-09 0 1.6437e-05)
(7.0615e-05 1.8055e-07 0 7.0347e-09 0 1.6297e-05)
(6.9965e-05 1.938e-07 0 7.9931e-09 0 1.6148e-05)
(6.9266e-05 2.0722e-07 0 8.8393e-09 0 1.5987e-05)
(6.852e-05 2.208e-07 0 9.5661e-09 0 1.5815e-05)
(6.7725e-05 2.3451e-07 0 1.0167e-08 0 1.5631e-05)
(6.6881e-05 2.4832e-07 0 1.0637e-08 0 1.5437e-05)
(6.5988e-05 2.6219e-07 0 1.0969e-08 0 1.523e-05)
(6.5044e-05 2.7609e-07 0 1.116e-08 0 1.5013e-05)
(6.4051e-05 2.8998e-07 0 1.1204e-08 0 1.4784e-05)
(6.3009e-05 3.0383e-07 0 1.1098e-08 0 1.4543e-05)
(6.1917e-05 3.1758e-07 0 1.0838e-08 0 1.4291e-05)
(6.0776e-05 3.3119e-07 0 1.042e-08 0 1.4028e-05)
(5.9587e-05 3.4461e-07 0 9.8435e-09 0 1.3753e-05)
(5.8349e-05 3.5779e-07 0 9.1057e-09 0 1.3467e-05)
(5.7066e-05 3.7068e-07 0 8.2062e-09 0 1.3171e-05)
(5.5736e-05 3.8323e-07 0 7.145e-09 0 1.2864e-05)
(5.4362e-05 3.9538e-07 0 5.9232e-09 0 1.2546e-05)
(5.2945e-05 4.0707e-07 0 4.5424e-09 0 1.2219e-05)
(5.1487e-05 4.1825e-07 0 3.0054e-09 0 1.1882e-05)
(4.9989e-05 4.2887e-07 0 1.3158e-09 0 1.1536e-05)
(4.8455e-05 4.3886e-07 0 -5.2191e-10 0 1.1182e-05)
(4.6885e-05 4.4817e-07 0 -2.5024e-09 0 1.0819e-05)
(4.5283e-05 4.5674e-07 0 -4.6192e-09 0 1.0449e-05)
(4.3652e-05 4.6452e-07 0 -6.8653e-09 0 1.0072e-05)
(4.1994e-05 4.7146e-07 0 -9.2322e-09 0 9.6888e-06)
(4.0313e-05 4.7749e-07 0 -1.1711e-08 0 9.3002e-06)
(3.8611e-05 4.8258e-07 0 -1.4292e-08 0 8.9069e-06)
(3.6892e-05 4.8667e-07 0 -1.6964e-08 0 8.5097e-06)
(3.5161e-05 4.8971e-07 0 -1.9714e-08 0 8.1095e-06)
(3.342e-05 4.9168e-07 0 -2.2532e-08 0 7.7071e-06)
(3.1674e-05 4.9252e-07 0 -2.5402e-08 0 7.3035e-06)
(2.9926e-05 4.922e-07 0 -2.8311e-08 0 6.8995e-06)
(2.8182e-05 4.907e-07 0 -3.1243e-08 0 6.4963e-06)
(2.6445e-05 4.8798e-07 0 -3.4183e-08 0 6.0947e-06)
(2.4719e-05 4.8402e-07 0 -3.7115e-08 0 5.6959e-06)
(2.301e-05 4.788e-07 0 -4.0019e-08 0 5.3008e-06)
(2.1322e-05 4.7231e-07 0 -4.2879e-08 0 4.9105e-06)
(1.9658e-05 4.6453e-07 0 -4.5677e-08 0 4.526e-06)
(1.8025e-05 4.5547e-07 0 -4.8391e-08 0 4.1485e-06)
(1.6427e-05 4.4512e-07 0 -5.1003e-08 0 3.779e-06)
(1.4868e-05 4.3348e-07 0 -5.3492e-08 0 3.4187e-06)
(1.3352e-05 4.2057e-07 0 -5.5836e-08 0 3.0685e-06)
(1.1886e-05 4.0639e-07 0 -5.8014e-08 0 2.7295e-06)
(1.0472e-05 3.9097e-07 0 -6.0003e-08 0 2.4028e-06)
(9.1159e-06 3.7434e-07 0 -6.178e-08 0 2.0894e-06)
(7.8216e-06 3.5652e-07 0 -6.3321e-08 0 1.7904e-06)
(6.5935e-06 3.3755e-07 0 -6.4602e-08 0 1.5067e-06)
(5.4355e-06 3.1749e-07 0 -6.5598e-08 0 1.2392e-06)
(4.3517e-06 2.9637e-07 0 -6.6283e-08 0 9.8894e-07)
(3.3458e-06 2.7426e-07 0 -6.6631e-08 0 7.5673e-07)
(2.4213e-06 2.5124e-07 0 -6.6616e-08 0 5.4339e-07)
(1.5814e-06 2.2739e-07 0 -6.6211e-08 0 3.4967e-07)
(8.2918e-07 2.0281e-07 0 -6.5388e-08 0 1.7626e-07)
(1.6703e-07 1.7762e-07 0 -6.4121e-08 0 2.3749e-08)
(-4.0289e-07 1.5196e-07 0 -6.2384e-08 0 -1.0737e-07)
(-8.7901e-07 1.2598e-07 0 -6.0153e-08 0 -2.1673e-07)
(-1.2604e-06 9.9896e-08 0 -5.7406e-08 0 -3.0411e-07)
(-1.5469e-06 7.3938e-08 0 -5.4128e-08 0 -3.6946e-07)
(-1.7392e-06 4.8399e-08 0 -5.031e-08 0 -4.1297e-07)
(-1.8394e-06 2.3636e-08 0 -4.5957e-08 0 -4.3508e-07)
(-1.8507e-06 9.6475e-11 0 -4.1096e-08 0 -4.3657e-07)
(-1.7785e-06 -2.166e-08 0 -3.5788e-08 0 -4.1867e-07)
(-1.6302e-06 -4.0916e-08 0 -3.0158e-08 0 -3.8317e-07)
(-1.4167e-06 -5.6751e-08 0 -2.4442e-08 0 -3.3257e-07)
(-1.1527e-06 -6.7973e-08 0 -1.9078e-08 0 -2.7041e-07)
(-8.5839e-07 -7.3087e-08 0 -1.4856e-08 0 -2.0152e-07)
(-5.6092e-07 -7.0409e-08 0 -1.3045e-08 0 -1.3245e-07)
(-2.9514e-07 -5.8678e-08 0 -1.4985e-08 0 -7.1566e-08)
(-1.0169e-07 -3.8772e-08 0 -1.908e-08 0 -2.7869e-08)
(-8.7155e-09 -1.6284e-08 0 -8.5211e-09 0 -3.9777e-09)
(35394 8648.2 0 5234.1 0 9375.7)
(36364 5639.7 0 1613.6 0 8764)
(34378 3769.8 0 598.22 0 8071.3)
(32332 2685.4 0 357.57 0 7543.7)
(30686 2074.8 0 272.96 0 7144.5)
(29367 1703.7 0 211.82 0 6825.8)
(28266 1454.9 0 160.82 0 6560)
(27316 1276.4 0 121.24 0 6331.7)
(26475 1143.1 0 92.219 0 6130.9)
(25716 1040.9 0 71.464 0 5951)
(25022 960.72 0 56.689 0 5787.4)
(24379 896.35 0 46.13 0 5636.6)
(23778 843.42 0 38.534 0 5496.1)
(23212 798.81 0 33.036 0 5364.2)
(22676 760.3 0 29.04 0 5239.5)
(22165 726.27 0 26.126 0 5121.1)
(21678 695.53 0 23.999 0 5008.1)
(21211 667.22 0 22.449 0 4900.1)
(20764 640.71 0 21.323 0 4796.7)
(20335 615.51 0 20.51 0 4697.5)
(19923 591.28 0 19.93 0 4602.3)
(19528 567.76 0 19.52 0 4510.9)
(19148 544.73 0 19.239 0 4423.3)
(18785 522.06 0 19.052 0 4339.3)
(18436 499.64 0 18.934 0 4258.9)
(18103 477.38 0 18.866 0 4181.9)
(17785 455.23 0 18.833 0 4108.5)
(17481 433.15 0 18.825 0 4038.5)
(17193 411.1 0 18.831 0 3972)
(16920 389.07 0 18.843 0 3908.9)
(16661 367.06 0 18.855 0 3849.2)
(16417 345.06 0 18.859 0 3792.9)
(16188 323.09 0 18.848 0 3739.9)
(15973 301.17 0 18.815 0 3690.4)
(15773 279.33 0 18.75 0 3644.2)
(15588 257.61 0 18.645 0 3601.4)
(15416 236.06 0 18.488 0 3561.9)
(15260 214.75 0 18.267 0 3525.7)
(15117 193.77 0 17.968 0 3492.7)
(14988 173.21 0 17.575 0 3462.8)
(14872 153.19 0 17.071 0 3436)
(14770 133.83 0 16.438 0 3412.3)
(14680 115.31 0 15.658 0 3391.3)
(14602 97.789 0 14.713 0 3373.1)
(14535 81.46 0 13.589 0 3357.4)
(14479 66.527 0 12.273 0 3344.1)
(14432 53.201 0 10.761 0 3333)
(14393 41.694 0 9.0557 0 3323.6)
(14362 32.204 0 7.1718 0 3315.9)
(14336 24.908 0 5.1365 0 3309.5)
(14315 19.941 0 2.9915 0 3304)
(14296 17.386 0 0.79334 0 3299.2)
(14278 17.257 0 -1.3878 0 3294.7)
(14261 19.486 0 -3.4713 0 3290.2)
(14242 23.917 0 -5.3713 0 3285.3)
(14219 30.304 0 -7.0037 0 3279.8)
(14193 38.315 0 -8.2934 0 3273.4)
(14162 47.551 0 -9.1835 0 3266)
(14125 57.563 0 -9.6414 0 3257.4)
(14082 67.888 0 -9.6639 0 3247.4)
(14033 78.069 0 -9.2786 0 3236.2)
(13978 87.698 0 -8.541 0 3223.6)
(13917 96.433 0 -7.5292 0 3209.9)
(13851 104.02 0 -6.3346 0 3195)
(13781 110.31 0 -5.0522 0 3179.1)
(13708 115.25 0 -3.7709 0 3162.5)
(13632 118.86 0 -2.5659 0 3145.2)
(13554 121.24 0 -1.4936 0 3127.5)
(13475 122.55 0 -0.58951 0 3109.4)
(13395 122.97 0 0.13071 0 3091.1)
(13315 122.69 0 0.6684 0 3072.8)
(13235 121.89 0 1.0377 0 3054.5)
(13156 120.74 0 1.2611 0 3036.2)
(13077 119.39 0 1.3651 0 3018.1)
(12999 117.95 0 1.3763 0 3000.2)
(12922 116.52 0 1.3202 0 2982.4)
(12846 115.15 0 1.219 0 2964.8)
(12771 113.88 0 1.0918 0 2947.4)
(12696 112.75 0 0.95445 0 2930.2)
(12623 111.75 0 0.81929 0 2913.1)
(12549 110.89 0 0.69578 0 2896.1)
(12476 110.14 0 0.5902 0 2879.3)
(12404 109.49 0 0.50801 0 2862.6)
(12332 108.9 0 0.45447 0 2846)
(12261 108.35 0 0.43294 0 2829.5)
(12189 107.8 0 0.44816 0 2813.1)
(12119 107.19 0 0.50765 0 2796.8)
(12049 106.49 0 0.61554 0 2780.6)
(11979 105.64 0 0.77191 0 2764.5)
(11910 104.58 0 0.98118 0 2748.6)
(11841 103.25 0 1.2491 0 2732.9)
(11774 101.59 0 1.5726 0 2717.5)
(11708 99.544 0 1.9521 0 2702.3)
(11643 97.05 0 2.3893 0 2687.5)
(11580 94.067 0 2.8616 0 2673.1)
(11520 90.566 0 3.3471 0 2659.2)
(11461 86.538 0 3.8385 0 2645.8)
(11405 82.005 0 4.3019 0 2633)
(11353 77.021 0 4.6965 0 2620.9)
(11303 71.666 0 5.0044 0 2609.6)
(11257 66.062 0 5.1892 0 2599)
(11215 60.355 0 5.2085 0 2589.2)
(11176 54.723 0 5.0512 0 2580.1)
(11140 49.367 0 4.7015 0 2571.8)
(11107 44.504 0 4.1547 0 2564.2)
(11078 40.324 0 3.4485 0 2557.2)
(11050 36.965 0 2.6265 0 2550.7)
(11025 34.526 0 1.7321 0 2544.6)
(11001 33.051 0 0.82202 0 2538.8)
(10977 32.523 0 -0.042346 0 2533.2)
(10954 32.862 0 -0.80288 0 2527.6)
(10930 33.933 0 -1.4102 0 2521.9)
(10905 35.552 0 -1.8275 0 2516.2)
(10880 37.507 0 -2.0327 0 2510.2)
(10853 39.569 0 -2.0196 0 2504.1)
(10825 41.51 0 -1.7973 0 2497.7)
(10796 43.12 0 -1.3889 0 2491.1)
(10767 44.217 0 -0.82882 0 2484.4)
(10737 44.662 0 -0.15994 0 2477.7)
(10707 44.363 0 0.56972 0 2470.9)
(10677 43.28 0 1.3104 0 2464.3)
(10649 41.426 0 2.0138 0 2457.9)
(10622 38.861 0 2.6366 0 2451.7)
(10596 35.689 0 3.1431 0 2446)
(10573 32.046 0 3.5076 0 2440.7)
(10552 28.089 0 3.716 0 2436)
(10534 23.986 0 3.7667 0 2431.7)
(10518 19.897 0 3.6698 0 2428.1)
(10505 15.972 0 3.4453 0 2424.9)
(10494 12.332 0 3.1208 0 2422.3)
(10485 9.0689 0 2.7277 0 2420.2)
(10478 6.2417 0 2.2982 0 2418.5)
(10473 3.8761 0 1.8618 0 2417.2)
(10469 1.969 0 1.4432 0 2416.2)
(10466 0.49361 0 1.0613 0 2415.5)
(10464 -0.59438 0 0.72861 0 2415)
(10463 -1.3509 0 0.45266 0 2414.7)
(10462 -1.8388 0 0.23717 0 2414.4)
(10462 -2.1247 0 0.083722 0 2414.3)
(10462 -2.2773 0 -0.0069063 0 2414.2)
(10462 -2.3665 0 -0.033895 0 2414.2)
(10462 -2.4634 0 0.0037579 0 2414.2)
(10462 -2.6397 0 0.10681 0 2414.3)
(10462 -2.9674 0 0.27494 0 2414.5)
(10463 -3.5165 0 0.50582 0 2414.7)
(10465 -4.3524 0 0.79427 0 2415.1)
(10467 -5.5331 0 1.1319 0 2415.7)
(10470 -7.1054 0 1.5072 0 2416.5)
(10474 -9.102 0 1.9057 0 2417.6)
(10480 -11.539 0 2.3113 0 2419)
(10487 -14.414 0 2.7068 0 2420.8)
(10497 -17.706 0 3.0749 0 2423.1)
(10509 -21.375 0 3.3988 0 2425.9)
(10523 -25.364 0 3.6625 0 2429.2)
(10540 -29.597 0 3.851 0 2433.1)
(10559 -33.985 0 3.9501 0 2437.7)
(10582 -38.419 0 3.9462 0 2442.9)
(10607 -42.782 0 3.8267 0 2448.7)
(10635 -46.938 0 3.5804 0 2455.1)
(10666 -50.747 0 3.1987 0 2462.1)
(10699 -54.057 0 2.6769 0 2469.5)
(10733 -56.721 0 2.0165 0 2477.4)
(10770 -58.594 0 1.2271 0 2485.6)
(10807 -59.553 0 0.32872 0 2494)
(10845 -59.499 0 -0.6472 0 2502.5)
(10883 -58.377 0 -1.657 0 2511)
(10919 -56.183 0 -2.646 0 2519.2)
(10954 -52.978 0 -3.5509 0 2527.1)
(10988 -48.889 0 -4.305 0 2534.6)
(11018 -44.114 0 -4.8433 0 2541.6)
(11046 -38.912 0 -5.1106 0 2547.9)
(11071 -33.592 0 -5.0683 0 2553.6)
(11092 -28.488 0 -4.7006 0 2558.7)
(11111 -23.939 0 -4.0185 0 2563.2)
(11128 -20.256 0 -3.0608 0 2567.3)
(11143 -17.697 0 -1.8915 0 2570.9)
(11156 -16.441 0 -0.5934 0 2574.4)
(11170 -16.578 0 0.74046 0 2577.8)
(11184 -18.1 0 2.0172 0 2581.3)
(11199 -20.907 0 3.1543 0 2585.1)
(11216 -24.823 0 4.0883 0 2589.3)
(11236 -29.617 0 4.7806 0 2594.1)
(11259 -35.03 0 5.2202 0 2599.5)
(11286 -40.803 0 5.4222 0 2605.7)
(11316 -46.703 0 5.4223 0 2612.6)
(11350 -52.535 0 5.2688 0 2620.4)
(11387 -58.154 0 5.0119 0 2628.9)
(11427 -63.459 0 4.693 0 2638.2)
(11471 -68.38 0 4.3351 0 2648.2)
(11517 -72.861 0 3.9367 0 2658.8)
(11566 -76.828 0 3.4702 0 2670)
(11617 -80.17 0 2.886 0 2681.6)
(11670 -82.722 0 2.1223 0 2693.6)
(11724 -84.262 0 1.1198 0 2705.8)
(11778 -84.519 0 -0.16184 0 2718)
(11832 -83.207 0 -1.7277 0 2730.1)
(11884 -80.06 0 -3.5362 0 2741.7)
(11934 -74.888 0 -5.4949 0 2752.7)
(11979 -67.622 0 -7.4662 0 2762.7)
(12019 -58.35 0 -9.2832 0 2771.6)
(12053 -47.336 0 -10.772 0 2779.1)
(12080 -35.013 0 -11.78 0 2785)
(12099 -21.95 0 -12.197 0 2789.2)
(12110 -8.7959 0 -11.975 0 2791.8)
(12112 3.7838 0 -11.132 0 2792.6)
(12108 15.171 0 -9.7459 0 2791.8)
(12097 24.849 0 -7.9372 0 2789.7)
(12080 32.433 0 -5.8473 0 2786.4)
(12060 37.687 0 -3.6155 0 2782.1)
(12036 40.505 0 -1.3602 0 2777.3)
(12012 40.894 0 0.83176 0 2772.3)
(11989 38.935 0 2.9084 0 2767.3)
(11967 34.754 0 4.8483 0 2762.7)
(11948 28.491 0 6.6515 0 2758.8)
(11934 20.291 0 8.3284 0 2755.8)
(11925 10.29 0 9.8887 0 2754.2)
(11923 -1.3741 0 11.333 0 2754)
(11928 -14.553 0 12.647 0 2755.6)
(11942 -29.073 0 13.8 0 2759.1)
(11965 -44.719 0 14.747 0 2764.6)
(11998 -61.218 0 15.432 0 2772.4)
(12042 -78.239 0 15.792 0 2782.5)
(12095 -95.379 0 15.762 0 2794.8)
(12159 -112.17 0 15.283 0 2809.5)
(12233 -128.09 0 14.302 0 2826.3)
(12316 -142.56 0 12.782 0 2845)
(12406 -155 0 10.704 0 2865.5)
(12504 -164.78 0 8.0718 0 2887.3)
(12605 -171.34 0 4.9185 0 2910.1)
(12709 -174.15 0 1.3078 0 2933.3)
(12814 -172.76 0 -2.6644 0 2956.4)
(12915 -166.85 0 -6.8739 0 2978.7)
(13010 -156.25 0 -11.175 0 2999.8)
(13097 -140.94 0 -15.413 0 3018.9)
(13173 -121.07 0 -19.438 0 3035.3)
(13234 -96.936 0 -23.116 0 3048.6)
(13278 -68.957 0 -26.346 0 3058)
(13303 -37.645 0 -29.064 0 3063.2)
(13307 -3.5572 0 -31.248 0 3063.6)
(13288 32.744 0 -32.917 0 3058.9)
(13246 70.735 0 -34.126 0 3048.8)
(13178 109.96 0 -34.953 0 3033)
(13085 150.04 0 -35.495 0 3011.4)
(12965 190.73 0 -35.855 0 2983.7)
(12819 231.88 0 -36.137 0 2950)
(12647 273.43 0 -36.434 0 2910)
(12447 315.42 0 -36.831 0 2863.8)
(12219 358 0 -37.398 0 2811.1)
(11964 401.34 0 -38.19 0 2752)
(11680 445.72 0 -39.256 0 2686.2)
(11366 491.45 0 -40.656 0 2613.6)
(11023 538.92 0 -42.468 0 2534.1)
(10649 588.57 0 -44.78 0 2447.2)
(10243 640.96 0 -47.716 0 2352.8)
(9803.4 696.7 0 -51.498 0 2250.4)
(9328.4 756.64 0 -56.547 0 2139.6)
(8815.9 821.93 0 -63.5 0 2019.8)
(8264.9 894.32 0 -73.066 0 1890.4)
(7673.9 976.1 0 -85.455 0 1751.2)
(7046.1 1070.5 0 -98.932 0 1603.2)
(6387.7 1181.7 0 -106.43 0 1449.5)
(5728.3 1318.4 0 -89.44 0 1301.3)
(5147.4 1493.8 0 -10.499 0 1185.4)
(4733.3 1692.5 0 160.95 0 1129.4)
(4066.4 1737 0 307.59 0 1009.4)
(2326.3 875.82 0 243.18 0 592.95)
(155.02 41.007 0 17.585 0 39.832)
(0.82676 0.12563 0 0.043348 0 0.20079)
(0.0059809 0.00085277 0 0.00011264 0 0.0014062)
(0.00015459 1.424e-05 0 4.047e-06 0 3.6609e-05)
(8.5144e-05 4.635e-06 0 1.1777e-06 0 1.992e-05)
(8.9149e-05 2.5332e-06 0 2.0072e-06 0 2.1036e-05)
(9.0857e-05 1.4592e-06 0 1.1748e-06 0 2.1238e-05)
(9.1001e-05 9.1489e-07 0 2.129e-07 0 2.1049e-05)
(9.107e-05 6.1391e-07 0 -3.1016e-07 0 2.0945e-05)
(9.1346e-05 6.836e-07 0 -1.5343e-07 0 2.1044e-05)
(9.1771e-05 4.5188e-07 0 5.1993e-07 0 2.1298e-05)
(9.2098e-05 -4.6138e-08 0 1.4476e-06 0 2.1588e-05)
(8.9359e-05 -2.2512e-07 0 2.1468e-06 0 2.1117e-05)
(8.7997e-05 -9.4236e-07 0 1.7737e-06 0 2.0716e-05)
(9.5118e-05 -3.8083e-06 0 -4.4364e-07 0 2.1848e-05)
(0.00010362 -6.5574e-06 0 -3.725e-06 0 2.3052e-05)
(0.00010505 -4.4046e-06 0 -4.0222e-06 0 2.3315e-05)
(9.588e-05 2.6427e-06 0 -2.0587e-06 0 2.1651e-05)
(7.5939e-05 6.4786e-06 0 9.6615e-08 0 1.7547e-05)
(7.6056e-05 7.3735e-06 0 8.8808e-07 0 1.7756e-05)
(8.0531e-05 6.275e-06 0 8.7e-07 0 1.8785e-05)
(8.1779e-05 4.6571e-06 0 6.2442e-07 0 1.9016e-05)
(8.0162e-05 3.5358e-06 0 5.0066e-07 0 1.8615e-05)
(7.8771e-05 2.7647e-06 0 4.5118e-07 0 1.8282e-05)
(7.7163e-05 2.2078e-06 0 4.2234e-07 0 1.7904e-05)
(7.5904e-05 1.7479e-06 0 4.0751e-07 0 1.761e-05)
(7.4984e-05 1.3484e-06 0 3.6616e-07 0 1.7389e-05)
(7.4312e-05 1.0052e-06 0 3.0647e-07 0 1.722e-05)
(7.3814e-05 7.1527e-07 0 2.4663e-07 0 1.7091e-05)
(7.3464e-05 4.7431e-07 0 1.9493e-07 0 1.6998e-05)
(7.3234e-05 2.7856e-07 0 1.5273e-07 0 1.6935e-05)
(7.3106e-05 1.2225e-07 0 1.196e-07 0 1.6898e-05)
(7.3048e-05 4.907e-10 0 9.4098e-08 0 1.6879e-05)
(7.3059e-05 -9.2929e-08 0 7.3924e-08 0 1.6877e-05)
(7.3131e-05 -1.653e-07 0 5.7583e-08 0 1.689e-05)
(7.3247e-05 -2.2155e-07 0 4.4624e-08 0 1.6914e-05)
(7.3397e-05 -2.6567e-07 0 3.4217e-08 0 1.6946e-05)
(7.3577e-05 -2.9976e-07 0 2.5283e-08 0 1.6985e-05)
(7.377e-05 -3.2459e-07 0 1.776e-08 0 1.7028e-05)
(7.3976e-05 -3.4165e-07 0 1.186e-08 0 1.7074e-05)
(7.4183e-05 -3.5163e-07 0 7.8599e-09 0 1.7121e-05)
(7.4397e-05 -3.5486e-07 0 6.3717e-09 0 1.717e-05)
(7.4604e-05 -3.5274e-07 0 6.2101e-09 0 1.7218e-05)
(7.4802e-05 -3.4527e-07 0 3.0396e-09 0 1.7263e-05)
(7.4955e-05 -3.3089e-07 0 -5.7436e-09 0 1.7296e-05)
(7.4984e-05 -3.1319e-07 0 -2.7769e-08 0 1.7298e-05)
(7.4958e-05 -3.4293e-07 0 -9.025e-08 0 1.7277e-05)
(7.4913e-05 -3.3612e-07 0 -2.0262e-07 0 1.7241e-05)
(7.4712e-05 6.2527e-08 0 -2.083e-07 0 1.7193e-05)
(7.4336e-05 4.2298e-07 0 -6.416e-08 0 1.714e-05)
(7.5032e-05 3.8201e-07 0 2.4861e-08 0 1.7321e-05)
(7.5246e-05 3.1954e-07 0 8.6087e-09 0 1.7366e-05)
(7.5168e-05 3.0517e-07 0 -1.2019e-08 0 1.7344e-05)
(7.4986e-05 3.2002e-07 0 -2.3565e-08 0 1.7299e-05)
(7.4759e-05 3.5163e-07 0 -3.1324e-08 0 1.7245e-05)
(7.4495e-05 3.9358e-07 0 -3.7343e-08 0 1.7183e-05)
(7.4196e-05 4.4184e-07 0 -4.1903e-08 0 1.7113e-05)
(7.3861e-05 4.9431e-07 0 -4.5342e-08 0 1.7034e-05)
(7.3487e-05 5.499e-07 0 -4.796e-08 0 1.6948e-05)
(7.3074e-05 6.0793e-07 0 -4.9993e-08 0 1.6852e-05)
(7.262e-05 6.6795e-07 0 -5.1624e-08 0 1.6747e-05)
(7.2125e-05 7.2963e-07 0 -5.2984e-08 0 1.6632e-05)
(7.1587e-05 7.9272e-07 0 -5.4157e-08 0 1.6508e-05)
(7.1006e-05 8.5706e-07 0 -5.5192e-08 0 1.6373e-05)
(7.0381e-05 9.2249e-07 0 -5.6117e-08 0 1.6229e-05)
(6.9711e-05 9.889e-07 0 -5.6941e-08 0 1.6074e-05)
(6.8996e-05 1.0562e-06 0 -5.7665e-08 0 1.5909e-05)
(6.8235e-05 1.1242e-06 0 -5.8284e-08 0 1.5733e-05)
(6.7428e-05 1.1928e-06 0 -5.8786e-08 0 1.5547e-05)
(6.6574e-05 1.2618e-06 0 -5.9159e-08 0 1.535e-05)
(6.5674e-05 1.3311e-06 0 -5.9386e-08 0 1.5142e-05)
(6.4727e-05 1.4006e-06 0 -5.9455e-08 0 1.4923e-05)
(6.3734e-05 1.47e-06 0 -5.9352e-08 0 1.4694e-05)
(6.2693e-05 1.5391e-06 0 -5.9065e-08 0 1.4454e-05)
(6.1607e-05 1.6077e-06 0 -5.8583e-08 0 1.4204e-05)
(6.0475e-05 1.6755e-06 0 -5.7897e-08 0 1.3942e-05)
(5.9298e-05 1.7424e-06 0 -5.7e-08 0 1.3671e-05)
(5.8076e-05 1.8081e-06 0 -5.5883e-08 0 1.3389e-05)
(5.6812e-05 1.8723e-06 0 -5.454e-08 0 1.3098e-05)
(5.5504e-05 1.9347e-06 0 -5.2965e-08 0 1.2796e-05)
(5.4156e-05 1.9951e-06 0 -5.1154e-08 0 1.2486e-05)
(5.2768e-05 2.0533e-06 0 -4.9102e-08 0 1.2166e-05)
(5.1343e-05 2.1088e-06 0 -4.6808e-08 0 1.1838e-05)
(4.9881e-05 2.1616e-06 0 -4.4268e-08 0 1.1501e-05)
(4.8386e-05 2.2111e-06 0 -4.1485e-08 0 1.1156e-05)
(4.6858e-05 2.2573e-06 0 -3.8459e-08 0 1.0805e-05)
(4.5302e-05 2.2998e-06 0 -3.5193e-08 0 1.0446e-05)
(4.3718e-05 2.3383e-06 0 -3.1692e-08 0 1.0082e-05)
(4.2111e-05 2.3725e-06 0 -2.7963e-08 0 9.7114e-06)
(4.0482e-05 2.4023e-06 0 -2.4014e-08 0 9.3366e-06)