/*--------------------------------*- C++ -*----------------------------------*\
| =========                 |                                                 |
| \\      /  F ield         | OpenFOAM: The Open Source CFD Toolbox           |
|  \\    /   O peration     | Version:  5.x                                   |
|   \\  /    A nd           | Web:      www.OpenFOAM.org                      |
|    \\/     M anipulation  |                                                 |
\*---------------------------------------------------------------------------*/
FoamFile
{
    version     2.0;
    format      ascii;
    class       volVectorField;
    location    "30";
    object      D;
}
// * * * * * * * * * * * * * * * * * * * * * * * * * * * * * * * * * * * * * //

dimensions      [0 1 0 0 0 0 0];

internalField   nonuniform List<vector> 
80000
(
(7.9654e-08 6.5574e-08 0)
(1.9992e-07 1.5992e-07 0)
(3.0409e-07 2.3432e-07 0)
(3.9961e-07 3.0207e-07 0)
(4.8925e-07 3.6763e-07 0)
(5.743e-07 4.3232e-07 0)
(6.5553e-07 4.9663e-07 0)
(7.3344e-07 5.6077e-07 0)
(8.0842e-07 6.2488e-07 0)
(8.8075e-07 6.8906e-07 0)
(9.5063e-07 7.5334e-07 0)
(1.0183e-06 8.1774e-07 0)
(1.0838e-06 8.8227e-07 0)
(1.1473e-06 9.469e-07 0)
(1.2089e-06 1.0116e-06 0)
(1.2688e-06 1.0763e-06 0)
(1.327e-06 1.1411e-06 0)
(1.3837e-06 1.2058e-06 0)
(1.4388e-06 1.2704e-06 0)
(1.4925e-06 1.3349e-06 0)
(1.5449e-06 1.3992e-06 0)
(1.5961e-06 1.4634e-06 0)
(1.646e-06 1.5274e-06 0)
(1.6948e-06 1.5912e-06 0)
(1.7426e-06 1.6547e-06 0)
(1.7894e-06 1.718e-06 0)
(1.8353e-06 1.7811e-06 0)
(1.8803e-06 1.8438e-06 0)
(1.9246e-06 1.9063e-06 0)
(1.968e-06 1.9686e-06 0)
(2.0108e-06 2.0306e-06 0)
(2.053e-06 2.0923e-06 0)
(2.0946e-06 2.1538e-06 0)
(2.1356e-06 2.215e-06 0)
(2.1762e-06 2.276e-06 0)
(2.2163e-06 2.3369e-06 0)
(2.256e-06 2.3975e-06 0)
(2.2954e-06 2.458e-06 0)
(2.3345e-06 2.5184e-06 0)
(2.3733e-06 2.5786e-06 0)
(2.4119e-06 2.6388e-06 0)
(2.4503e-06 2.699e-06 0)
(2.4887e-06 2.7591e-06 0)
(2.5269e-06 2.8193e-06 0)
(2.565e-06 2.8796e-06 0)
(2.6031e-06 2.94e-06 0)
(2.6412e-06 3.0006e-06 0)
(2.6794e-06 3.0615e-06 0)
(2.7176e-06 3.1226e-06 0)
(2.7559e-06 3.1841e-06 0)
(2.7943e-06 3.246e-06 0)
(2.8329e-06 3.3083e-06 0)
(2.8715e-06 3.3712e-06 0)
(2.9103e-06 3.4347e-06 0)
(2.9492e-06 3.4988e-06 0)
(2.9882e-06 3.5637e-06 0)
(3.0273e-06 3.6292e-06 0)
(3.0666e-06 3.6956e-06 0)
(3.1059e-06 3.7628e-06 0)
(3.1452e-06 3.8309e-06 0)
(3.1846e-06 3.8998e-06 0)
(3.224e-06 3.9697e-06 0)
(3.2633e-06 4.0404e-06 0)
(3.3025e-06 4.1121e-06 0)
(3.3417e-06 4.1846e-06 0)
(3.3808e-06 4.2579e-06 0)
(3.4197e-06 4.3321e-06 0)
(3.4585e-06 4.4071e-06 0)
(3.4971e-06 4.4828e-06 0)
(3.5355e-06 4.5592e-06 0)
(3.5738e-06 4.6364e-06 0)
(3.6119e-06 4.7142e-06 0)
(3.6498e-06 4.7926e-06 0)
(3.6875e-06 4.8715e-06 0)
(3.725e-06 4.9511e-06 0)
(3.7624e-06 5.0311e-06 0)
(3.7996e-06 5.1116e-06 0)
(3.8367e-06 5.1927e-06 0)
(3.8737e-06 5.2741e-06 0)
(3.9105e-06 5.356e-06 0)
(3.9471e-06 5.4383e-06 0)
(3.9837e-06 5.521e-06 0)
(4.0201e-06 5.6042e-06 0)
(4.0564e-06 5.6876e-06 0)
(4.0926e-06 5.7715e-06 0)
(4.1287e-06 5.8557e-06 0)
(4.1647e-06 5.9402e-06 0)
(4.2006e-06 6.0251e-06 0)
(4.2364e-06 6.1103e-06 0)
(4.2722e-06 6.1958e-06 0)
(4.3078e-06 6.2817e-06 0)
(4.3434e-06 6.3678e-06 0)
(4.3788e-06 6.4542e-06 0)
(4.4142e-06 6.541e-06 0)
(4.4495e-06 6.628e-06 0)
(4.4847e-06 6.7153e-06 0)
(4.5198e-06 6.8028e-06 0)
(4.5549e-06 6.8906e-06 0)
(4.5899e-06 6.9787e-06 0)
(4.6248e-06 7.067e-06 0)
(4.6596e-06 7.1555e-06 0)
(4.6944e-06 7.2443e-06 0)
(4.729e-06 7.3333e-06 0)
(4.7636e-06 7.4225e-06 0)
(4.7981e-06 7.5119e-06 0)
(4.8325e-06 7.6016e-06 0)
(4.8669e-06 7.6914e-06 0)
(4.9011e-06 7.7814e-06 0)
(4.9352e-06 7.8715e-06 0)
(4.9692e-06 7.9619e-06 0)
(5.0031e-06 8.0523e-06 0)
(5.0369e-06 8.1429e-06 0)
(5.0707e-06 8.2337e-06 0)
(5.1043e-06 8.3245e-06 0)
(5.1378e-06 8.4155e-06 0)
(5.1712e-06 8.5065e-06 0)
(5.2045e-06 8.5976e-06 0)
(5.2376e-06 8.6888e-06 0)
(5.2707e-06 8.78e-06 0)
(5.3036e-06 8.8713e-06 0)
(5.3365e-06 8.9625e-06 0)
(5.3692e-06 9.0538e-06 0)
(5.4018e-06 9.1451e-06 0)
(5.4343e-06 9.2363e-06 0)
(5.4667e-06 9.3275e-06 0)
(5.499e-06 9.4186e-06 0)
(5.5311e-06 9.5097e-06 0)
(5.5632e-06 9.6006e-06 0)
(5.5951e-06 9.6915e-06 0)
(5.627e-06 9.7822e-06 0)
(5.6588e-06 9.8728e-06 0)
(5.6904e-06 9.9633e-06 0)
(5.722e-06 1.0054e-05 0)
(5.7536e-06 1.0144e-05 0)
(5.7851e-06 1.0234e-05 0)
(5.8165e-06 1.0323e-05 0)
(5.8479e-06 1.0413e-05 0)
(5.8793e-06 1.0502e-05 0)
(5.9106e-06 1.0591e-05 0)
(5.942e-06 1.068e-05 0)
(5.9735e-06 1.0769e-05 0)
(6.0049e-06 1.0857e-05 0)
(6.0365e-06 1.0946e-05 0)
(6.0681e-06 1.1034e-05 0)
(6.0998e-06 1.1122e-05 0)
(6.1317e-06 1.121e-05 0)
(6.1637e-06 1.1297e-05 0)
(6.1958e-06 1.1385e-05 0)
(6.2281e-06 1.1473e-05 0)
(6.2606e-06 1.1561e-05 0)
(6.2933e-06 1.1648e-05 0)
(6.3262e-06 1.1736e-05 0)
(6.3593e-06 1.1824e-05 0)
(6.3926e-06 1.1912e-05 0)
(6.4261e-06 1.2001e-05 0)
(6.4598e-06 1.209e-05 0)
(6.4938e-06 1.2178e-05 0)
(6.5279e-06 1.2268e-05 0)
(6.5622e-06 1.2357e-05 0)
(6.5968e-06 1.2447e-05 0)
(6.6315e-06 1.2538e-05 0)
(6.6664e-06 1.2629e-05 0)
(6.7015e-06 1.272e-05 0)
(6.7367e-06 1.2812e-05 0)
(6.7721e-06 1.2905e-05 0)
(6.8076e-06 1.2998e-05 0)
(6.8432e-06 1.3091e-05 0)
(6.8789e-06 1.3185e-05 0)
(6.9147e-06 1.328e-05 0)
(6.9506e-06 1.3375e-05 0)
(6.9865e-06 1.3471e-05 0)
(7.0225e-06 1.3567e-05 0)
(7.0585e-06 1.3664e-05 0)
(7.0945e-06 1.3762e-05 0)
(7.1305e-06 1.3859e-05 0)
(7.1665e-06 1.3958e-05 0)
(7.2025e-06 1.4056e-05 0)
(7.2386e-06 1.4156e-05 0)
(7.2746e-06 1.4255e-05 0)
(7.3106e-06 1.4355e-05 0)
(7.3467e-06 1.4456e-05 0)
(7.3827e-06 1.4556e-05 0)
(7.4188e-06 1.4657e-05 0)
(7.4548e-06 1.4759e-05 0)
(7.491e-06 1.4861e-05 0)
(7.5271e-06 1.4963e-05 0)
(7.5632e-06 1.5065e-05 0)
(7.5994e-06 1.5168e-05 0)
(7.6357e-06 1.5271e-05 0)
(7.6719e-06 1.5374e-05 0)
(7.7081e-06 1.5478e-05 0)
(7.7444e-06 1.5582e-05 0)
(7.7806e-06 1.5686e-05 0)
(7.8169e-06 1.5791e-05 0)
(7.8531e-06 1.5896e-05 0)
(7.8893e-06 1.6002e-05 0)
(7.9255e-06 1.6107e-05 0)
(7.9617e-06 1.6213e-05 0)
(7.9978e-06 1.6319e-05 0)
(8.0338e-06 1.6426e-05 0)
(8.0698e-06 1.6533e-05 0)
(8.1058e-06 1.664e-05 0)
(8.1416e-06 1.6747e-05 0)
(8.1774e-06 1.6854e-05 0)
(8.2131e-06 1.6962e-05 0)
(8.2488e-06 1.707e-05 0)
(8.2843e-06 1.7178e-05 0)
(8.3197e-06 1.7286e-05 0)
(8.3551e-06 1.7394e-05 0)
(8.3903e-06 1.7503e-05 0)
(8.4254e-06 1.7611e-05 0)
(8.4605e-06 1.772e-05 0)
(8.4954e-06 1.7828e-05 0)
(8.5303e-06 1.7937e-05 0)
(8.5651e-06 1.8046e-05 0)
(8.5998e-06 1.8155e-05 0)
(8.6346e-06 1.8263e-05 0)
(8.6693e-06 1.8372e-05 0)
(8.704e-06 1.8481e-05 0)
(8.7388e-06 1.8589e-05 0)
(8.7737e-06 1.8698e-05 0)
(8.8087e-06 1.8807e-05 0)
(8.8439e-06 1.8915e-05 0)
(8.8792e-06 1.9024e-05 0)
(8.9148e-06 1.9133e-05 0)
(8.9507e-06 1.9242e-05 0)
(8.9869e-06 1.9352e-05 0)
(9.0235e-06 1.9462e-05 0)
(9.0604e-06 1.9572e-05 0)
(9.0977e-06 1.9683e-05 0)
(9.1354e-06 1.9795e-05 0)
(9.1736e-06 1.9907e-05 0)
(9.2122e-06 2.002e-05 0)
(9.2512e-06 2.0135e-05 0)
(9.2907e-06 2.025e-05 0)
(9.3306e-06 2.0367e-05 0)
(9.3709e-06 2.0485e-05 0)
(9.4115e-06 2.0604e-05 0)
(9.4524e-06 2.0726e-05 0)
(9.4936e-06 2.0849e-05 0)
(9.535e-06 2.0974e-05 0)
(9.5765e-06 2.11e-05 0)
(9.6182e-06 2.1229e-05 0)
(9.6598e-06 2.136e-05 0)
(9.7014e-06 2.1493e-05 0)
(9.7428e-06 2.1628e-05 0)
(9.7839e-06 2.1766e-05 0)
(9.8247e-06 2.1905e-05 0)
(9.8651e-06 2.2047e-05 0)
(9.905e-06 2.2192e-05 0)
(9.9442e-06 2.2338e-05 0)
(9.9826e-06 2.2487e-05 0)
(1.002e-05 2.2639e-05 0)
(1.0057e-05 2.2792e-05 0)
(1.0092e-05 2.2947e-05 0)
(1.0126e-05 2.3105e-05 0)
(1.0159e-05 2.3265e-05 0)
(1.019e-05 2.3426e-05 0)
(1.022e-05 2.3589e-05 0)
(1.0247e-05 2.3754e-05 0)
(1.0273e-05 2.3919e-05 0)
(1.0295e-05 2.4085e-05 0)
(1.0315e-05 2.4252e-05 0)
(1.0333e-05 2.4418e-05 0)
(1.035e-05 2.4585e-05 0)
(1.0367e-05 2.4752e-05 0)
(1.0393e-05 2.4921e-05 0)
(1.0425e-05 2.5095e-05 0)
(1.0466e-05 2.5274e-05 0)
(1.0506e-05 2.5456e-05 0)
(1.0549e-05 2.5641e-05 0)
(1.0594e-05 2.5828e-05 0)
(1.0639e-05 2.6015e-05 0)
(1.068e-05 2.6203e-05 0)
(1.0717e-05 2.6391e-05 0)
(1.0755e-05 2.6579e-05 0)
(1.0795e-05 2.6761e-05 0)
(1.0832e-05 2.6936e-05 0)
(1.0849e-05 2.7108e-05 0)
(1.0854e-05 2.7284e-05 0)
(1.0855e-05 2.7462e-05 0)
(1.0856e-05 2.764e-05 0)
(1.0857e-05 2.782e-05 0)
(1.0858e-05 2.8e-05 0)
(1.0859e-05 2.818e-05 0)
(1.0861e-05 2.8362e-05 0)
(1.0867e-05 2.8548e-05 0)
(1.0886e-05 2.8742e-05 0)
(1.0919e-05 2.8939e-05 0)
(1.0947e-05 2.913e-05 0)
(1.0967e-05 2.9316e-05 0)
(1.0983e-05 2.9499e-05 0)
(1.0999e-05 2.968e-05 0)
(1.1013e-05 2.986e-05 0)
(1.1027e-05 3.0038e-05 0)
(1.1039e-05 3.0215e-05 0)
(1.1051e-05 3.0391e-05 0)
(1.1061e-05 3.0566e-05 0)
(1.107e-05 3.074e-05 0)
(1.1078e-05 3.0912e-05 0)
(1.1085e-05 3.1084e-05 0)
(1.1092e-05 3.1254e-05 0)
(1.1098e-05 3.1423e-05 0)
(1.1103e-05 3.1591e-05 0)
(1.1107e-05 3.1758e-05 0)
(1.1111e-05 3.1923e-05 0)
(1.1114e-05 3.2087e-05 0)
(1.1116e-05 3.225e-05 0)
(1.1118e-05 3.2411e-05 0)
(1.112e-05 3.2571e-05 0)
(1.1122e-05 3.273e-05 0)
(1.1124e-05 3.2888e-05 0)
(1.1126e-05 3.3046e-05 0)
(1.1128e-05 3.3205e-05 0)
(1.1129e-05 3.3364e-05 0)
(1.113e-05 3.3523e-05 0)
(1.1133e-05 3.3684e-05 0)
(1.1141e-05 3.3847e-05 0)
(1.1157e-05 3.4011e-05 0)
(1.1175e-05 3.4175e-05 0)
(1.1191e-05 3.4336e-05 0)
(1.1204e-05 3.4495e-05 0)
(1.1216e-05 3.4654e-05 0)
(1.1228e-05 3.4811e-05 0)
(1.1239e-05 3.4968e-05 0)
(1.125e-05 3.5124e-05 0)
(1.1261e-05 3.528e-05 0)
(1.1271e-05 3.5435e-05 0)
(1.128e-05 3.5589e-05 0)
(1.129e-05 3.5743e-05 0)
(1.1299e-05 3.5896e-05 0)
(1.1308e-05 3.6048e-05 0)
(1.1317e-05 3.62e-05 0)
(1.1325e-05 3.6352e-05 0)
(1.1333e-05 3.6503e-05 0)
(1.1342e-05 3.6654e-05 0)
(1.135e-05 3.6804e-05 0)
(1.1357e-05 3.6953e-05 0)
(1.1365e-05 3.7103e-05 0)
(1.1372e-05 3.7252e-05 0)
(1.138e-05 3.74e-05 0)
(1.1387e-05 3.7549e-05 0)
(1.1394e-05 3.7696e-05 0)
(1.1401e-05 3.7844e-05 0)
(1.1408e-05 3.7991e-05 0)
(1.1414e-05 3.8138e-05 0)
(1.1421e-05 3.8284e-05 0)
(1.1427e-05 3.843e-05 0)
(1.1433e-05 3.8576e-05 0)
(1.1439e-05 3.8721e-05 0)
(1.1444e-05 3.8867e-05 0)
(1.1449e-05 3.9011e-05 0)
(1.1455e-05 3.9156e-05 0)
(1.146e-05 3.93e-05 0)
(1.1464e-05 3.9444e-05 0)
(1.1469e-05 3.9587e-05 0)
(1.1473e-05 3.9731e-05 0)
(1.1477e-05 3.9873e-05 0)
(1.148e-05 4.0016e-05 0)
(1.1484e-05 4.0158e-05 0)
(1.1487e-05 4.03e-05 0)
(1.149e-05 4.0441e-05 0)
(1.1492e-05 4.0582e-05 0)
(1.1495e-05 4.0722e-05 0)
(1.1497e-05 4.0863e-05 0)
(1.1499e-05 4.1002e-05 0)
(1.15e-05 4.1142e-05 0)
(1.1501e-05 4.128e-05 0)
(1.1502e-05 4.1419e-05 0)
(1.1503e-05 4.1557e-05 0)
(1.1504e-05 4.1694e-05 0)
(1.1504e-05 4.1831e-05 0)
(1.1504e-05 4.1968e-05 0)
(1.1504e-05 4.2104e-05 0)
(1.1504e-05 4.224e-05 0)
(1.1504e-05 4.2375e-05 0)
(1.1503e-05 4.251e-05 0)
(1.1503e-05 4.2644e-05 0)
(1.1502e-05 4.2778e-05 0)
(1.1501e-05 4.2912e-05 0)
(1.15e-05 4.3044e-05 0)
(1.1499e-05 4.3177e-05 0)
(1.1498e-05 4.3309e-05 0)
(1.1497e-05 4.3441e-05 0)
(1.1496e-05 4.3572e-05 0)
(1.1495e-05 4.3703e-05 0)
(1.1494e-05 4.3834e-05 0)
(1.1493e-05 4.3964e-05 0)
(1.1492e-05 4.4094e-05 0)
(1.1491e-05 4.4223e-05 0)
(1.149e-05 4.4353e-05 0)
(1.1489e-05 4.4482e-05 0)
(1.1489e-05 4.4611e-05 0)
(1.1488e-05 4.474e-05 0)
(1.1488e-05 4.4869e-05 0)
(1.1488e-05 4.4998e-05 0)
(1.1488e-05 4.5127e-05 0)
(1.1488e-05 4.5256e-05 0)
(1.1488e-05 4.5385e-05 0)
(1.1488e-05 4.5514e-05 0)
(4.6462e-08 4.3632e-08 0)
(1.5083e-07 1.277e-07 0)
(2.5139e-07 2.0385e-07 0)
(3.455e-07 2.742e-07 0)
(4.3407e-07 3.4159e-07 0)
(5.1819e-07 4.0761e-07 0)
(5.9861e-07 4.7296e-07 0)
(6.7581e-07 5.3801e-07 0)
(7.5015e-07 6.0293e-07 0)
(8.2191e-07 6.6785e-07 0)
(8.9128e-07 7.3282e-07 0)
(9.5845e-07 7.9787e-07 0)
(1.0236e-06 8.63e-07 0)
(1.0867e-06 9.2819e-07 0)
(1.1481e-06 9.9343e-07 0)
(1.2078e-06 1.0587e-06 0)
(1.2658e-06 1.1239e-06 0)
(1.3223e-06 1.189e-06 0)
(1.3774e-06 1.2541e-06 0)
(1.431e-06 1.319e-06 0)
(1.4834e-06 1.3837e-06 0)
(1.5346e-06 1.4483e-06 0)
(1.5846e-06 1.5126e-06 0)
(1.6335e-06 1.5767e-06 0)
(1.6814e-06 1.6405e-06 0)
(1.7283e-06 1.7041e-06 0)
(1.7743e-06 1.7674e-06 0)
(1.8195e-06 1.8304e-06 0)
(1.8639e-06 1.8932e-06 0)
(1.9075e-06 1.9556e-06 0)
(1.9504e-06 2.0178e-06 0)
(1.9927e-06 2.0797e-06 0)
(2.0344e-06 2.1414e-06 0)
(2.0756e-06 2.2028e-06 0)
(2.1162e-06 2.2639e-06 0)
(2.1564e-06 2.3249e-06 0)
(2.1962e-06 2.3856e-06 0)
(2.2357e-06 2.4462e-06 0)
(2.2748e-06 2.5067e-06 0)
(2.3136e-06 2.567e-06 0)
(2.3522e-06 2.6273e-06 0)
(2.3905e-06 2.6875e-06 0)
(2.4287e-06 2.7477e-06 0)
(2.4668e-06 2.8079e-06 0)
(2.5048e-06 2.8682e-06 0)
(2.5426e-06 2.9286e-06 0)
(2.5805e-06 2.9892e-06 0)
(2.6183e-06 3.0501e-06 0)
(2.6562e-06 3.1112e-06 0)
(2.6941e-06 3.1726e-06 0)
(2.732e-06 3.2345e-06 0)
(2.77e-06 3.2968e-06 0)
(2.8081e-06 3.3597e-06 0)
(2.8462e-06 3.4231e-06 0)
(2.8845e-06 3.4872e-06 0)
(2.9228e-06 3.552e-06 0)
(2.9612e-06 3.6176e-06 0)
(2.9996e-06 3.6839e-06 0)
(3.0381e-06 3.7511e-06 0)
(3.0767e-06 3.8192e-06 0)
(3.1152e-06 3.8882e-06 0)
(3.1537e-06 3.958e-06 0)
(3.1922e-06 4.0288e-06 0)
(3.2307e-06 4.1004e-06 0)
(3.269e-06 4.1729e-06 0)
(3.3073e-06 4.2463e-06 0)
(3.3454e-06 4.3205e-06 0)
(3.3835e-06 4.3956e-06 0)
(3.4214e-06 4.4713e-06 0)
(3.4591e-06 4.5478e-06 0)
(3.4967e-06 4.625e-06 0)
(3.5341e-06 4.7029e-06 0)
(3.5714e-06 4.7813e-06 0)
(3.6086e-06 4.8603e-06 0)
(3.6456e-06 4.9399e-06 0)
(3.6825e-06 5.02e-06 0)
(3.7192e-06 5.1006e-06 0)
(3.7558e-06 5.1816e-06 0)
(3.7923e-06 5.2631e-06 0)
(3.8286e-06 5.3451e-06 0)
(3.8649e-06 5.4274e-06 0)
(3.901e-06 5.5102e-06 0)
(3.937e-06 5.5933e-06 0)
(3.973e-06 5.6768e-06 0)
(4.0088e-06 5.7607e-06 0)
(4.0445e-06 5.8449e-06 0)
(4.0802e-06 5.9295e-06 0)
(4.1158e-06 6.0144e-06 0)
(4.1513e-06 6.0996e-06 0)
(4.1867e-06 6.1852e-06 0)
(4.222e-06 6.271e-06 0)
(4.2572e-06 6.3572e-06 0)
(4.2924e-06 6.4437e-06 0)
(4.3275e-06 6.5304e-06 0)
(4.3625e-06 6.6174e-06 0)
(4.3975e-06 6.7047e-06 0)
(4.4324e-06 6.7923e-06 0)
(4.4672e-06 6.8801e-06 0)
(4.5019e-06 6.9682e-06 0)
(4.5366e-06 7.0566e-06 0)
(4.5712e-06 7.1451e-06 0)
(4.6057e-06 7.2339e-06 0)
(4.6401e-06 7.3229e-06 0)
(4.6745e-06 7.4122e-06 0)
(4.7088e-06 7.5016e-06 0)
(4.743e-06 7.5913e-06 0)
(4.7772e-06 7.6811e-06 0)
(4.8112e-06 7.7711e-06 0)
(4.8452e-06 7.8613e-06 0)
(4.879e-06 7.9517e-06 0)
(4.9128e-06 8.0422e-06 0)
(4.9465e-06 8.1328e-06 0)
(4.9801e-06 8.2236e-06 0)
(5.0136e-06 8.3145e-06 0)
(5.047e-06 8.4054e-06 0)
(5.0803e-06 8.4965e-06 0)
(5.1136e-06 8.5876e-06 0)
(5.1467e-06 8.6789e-06 0)
(5.1797e-06 8.7701e-06 0)
(5.2126e-06 8.8614e-06 0)
(5.2455e-06 8.9527e-06 0)
(5.2782e-06 9.044e-06 0)
(5.3108e-06 9.1353e-06 0)
(5.3433e-06 9.2266e-06 0)
(5.3758e-06 9.3178e-06 0)
(5.4081e-06 9.409e-06 0)
(5.4403e-06 9.5e-06 0)
(5.4725e-06 9.591e-06 0)
(5.5045e-06 9.6819e-06 0)
(5.5365e-06 9.7727e-06 0)
(5.5684e-06 9.8633e-06 0)
(5.6002e-06 9.9537e-06 0)
(5.632e-06 1.0044e-05 0)
(5.6637e-06 1.0134e-05 0)
(5.6953e-06 1.0224e-05 0)
(5.7269e-06 1.0314e-05 0)
(5.7585e-06 1.0403e-05 0)
(5.7901e-06 1.0493e-05 0)
(5.8216e-06 1.0582e-05 0)
(5.8532e-06 1.0671e-05 0)
(5.8848e-06 1.0759e-05 0)
(5.9164e-06 1.0848e-05 0)
(5.948e-06 1.0936e-05 0)
(5.9798e-06 1.1024e-05 0)
(6.0116e-06 1.1112e-05 0)
(6.0435e-06 1.12e-05 0)
(6.0756e-06 1.1288e-05 0)
(6.1077e-06 1.1375e-05 0)
(6.14e-06 1.1463e-05 0)
(6.1725e-06 1.1551e-05 0)
(6.2051e-06 1.1639e-05 0)
(6.2378e-06 1.1726e-05 0)
(6.2707e-06 1.1814e-05 0)
(6.3038e-06 1.1902e-05 0)
(6.3371e-06 1.1991e-05 0)
(6.3706e-06 1.2079e-05 0)
(6.4042e-06 1.2168e-05 0)
(6.438e-06 1.2258e-05 0)
(6.472e-06 1.2347e-05 0)
(6.5061e-06 1.2437e-05 0)
(6.5404e-06 1.2528e-05 0)
(6.5749e-06 1.2618e-05 0)
(6.6095e-06 1.271e-05 0)
(6.6442e-06 1.2802e-05 0)
(6.6791e-06 1.2894e-05 0)
(6.7141e-06 1.2987e-05 0)
(6.7492e-06 1.3081e-05 0)
(6.7843e-06 1.3175e-05 0)
(6.8196e-06 1.3269e-05 0)
(6.855e-06 1.3365e-05 0)
(6.8904e-06 1.346e-05 0)
(6.9258e-06 1.3557e-05 0)
(6.9613e-06 1.3653e-05 0)
(6.9968e-06 1.3751e-05 0)
(7.0324e-06 1.3849e-05 0)
(7.068e-06 1.3947e-05 0)
(7.1036e-06 1.4046e-05 0)
(7.1392e-06 1.4145e-05 0)
(7.1748e-06 1.4245e-05 0)
(7.2104e-06 1.4344e-05 0)
(7.2461e-06 1.4445e-05 0)
(7.2818e-06 1.4546e-05 0)
(7.3175e-06 1.4647e-05 0)
(7.3532e-06 1.4748e-05 0)
(7.389e-06 1.485e-05 0)
(7.4248e-06 1.4952e-05 0)
(7.4606e-06 1.5054e-05 0)
(7.4965e-06 1.5157e-05 0)
(7.5324e-06 1.526e-05 0)
(7.5683e-06 1.5363e-05 0)
(7.6042e-06 1.5467e-05 0)
(7.6401e-06 1.5571e-05 0)
(7.6761e-06 1.5676e-05 0)
(7.712e-06 1.578e-05 0)
(7.748e-06 1.5885e-05 0)
(7.7839e-06 1.5991e-05 0)
(7.8198e-06 1.6096e-05 0)
(7.8557e-06 1.6202e-05 0)
(7.8915e-06 1.6309e-05 0)
(7.9273e-06 1.6415e-05 0)
(7.9631e-06 1.6522e-05 0)
(7.9988e-06 1.6629e-05 0)
(8.0345e-06 1.6736e-05 0)
(8.07e-06 1.6843e-05 0)
(8.1056e-06 1.6951e-05 0)
(8.141e-06 1.7059e-05 0)
(8.1764e-06 1.7167e-05 0)
(8.2117e-06 1.7275e-05 0)
(8.2469e-06 1.7384e-05 0)
(8.282e-06 1.7492e-05 0)
(8.3171e-06 1.7601e-05 0)
(8.352e-06 1.7709e-05 0)
(8.3869e-06 1.7818e-05 0)
(8.4217e-06 1.7927e-05 0)
(8.4565e-06 1.8035e-05 0)
(8.4912e-06 1.8144e-05 0)
(8.5259e-06 1.8253e-05 0)
(8.5606e-06 1.8362e-05 0)
(8.5953e-06 1.847e-05 0)
(8.63e-06 1.8579e-05 0)
(8.6648e-06 1.8687e-05 0)
(8.6997e-06 1.8796e-05 0)
(8.7347e-06 1.8905e-05 0)
(8.7698e-06 1.9014e-05 0)
(8.8052e-06 1.9123e-05 0)
(8.8407e-06 1.9232e-05 0)
(8.8765e-06 1.9341e-05 0)
(8.9126e-06 1.9451e-05 0)
(8.9489e-06 1.9561e-05 0)
(8.9856e-06 1.9672e-05 0)
(9.0226e-06 1.9783e-05 0)
(9.0599e-06 1.9896e-05 0)
(9.0975e-06 2.0009e-05 0)
(9.1355e-06 2.0123e-05 0)
(9.1738e-06 2.0238e-05 0)
(9.2124e-06 2.0355e-05 0)
(9.2513e-06 2.0473e-05 0)
(9.2904e-06 2.0592e-05 0)
(9.3297e-06 2.0714e-05 0)
(9.3693e-06 2.0837e-05 0)
(9.4089e-06 2.0961e-05 0)
(9.4486e-06 2.1088e-05 0)
(9.4884e-06 2.1217e-05 0)
(9.5281e-06 2.1348e-05 0)
(9.5676e-06 2.1481e-05 0)
(9.607e-06 2.1616e-05 0)
(9.6461e-06 2.1754e-05 0)
(9.6848e-06 2.1894e-05 0)
(9.7232e-06 2.2036e-05 0)
(9.761e-06 2.218e-05 0)
(9.7982e-06 2.2327e-05 0)
(9.8346e-06 2.2476e-05 0)
(9.8702e-06 2.2628e-05 0)
(9.9049e-06 2.2781e-05 0)
(9.9386e-06 2.2937e-05 0)
(9.9712e-06 2.3095e-05 0)
(1.0003e-05 2.3255e-05 0)
(1.0033e-05 2.3417e-05 0)
(1.0062e-05 2.3581e-05 0)
(1.0089e-05 2.3746e-05 0)
(1.0114e-05 2.3912e-05 0)
(1.0138e-05 2.4079e-05 0)
(1.016e-05 2.4246e-05 0)
(1.0181e-05 2.4413e-05 0)
(1.0202e-05 2.458e-05 0)
(1.0223e-05 2.4746e-05 0)
(1.0245e-05 2.4914e-05 0)
(1.0272e-05 2.5086e-05 0)
(1.0309e-05 2.5264e-05 0)
(1.0345e-05 2.5445e-05 0)
(1.0386e-05 2.563e-05 0)
(1.0426e-05 2.5817e-05 0)
(1.0464e-05 2.6003e-05 0)
(1.05e-05 2.6191e-05 0)
(1.0538e-05 2.6379e-05 0)
(1.0582e-05 2.6568e-05 0)
(1.0629e-05 2.6752e-05 0)
(1.0661e-05 2.693e-05 0)
(1.0672e-05 2.7106e-05 0)
(1.0675e-05 2.7284e-05 0)
(1.0676e-05 2.7462e-05 0)
(1.0677e-05 2.764e-05 0)
(1.0677e-05 2.7819e-05 0)
(1.0678e-05 2.7999e-05 0)
(1.0678e-05 2.818e-05 0)
(1.068e-05 2.8361e-05 0)
(1.0686e-05 2.8546e-05 0)
(1.0706e-05 2.8738e-05 0)
(1.0739e-05 2.8933e-05 0)
(1.0767e-05 2.9124e-05 0)
(1.0788e-05 2.9311e-05 0)
(1.0806e-05 2.9494e-05 0)
(1.0823e-05 2.9675e-05 0)
(1.0838e-05 2.9855e-05 0)
(1.0853e-05 3.0034e-05 0)
(1.0866e-05 3.0212e-05 0)
(1.0879e-05 3.0388e-05 0)
(1.089e-05 3.0563e-05 0)
(1.09e-05 3.0737e-05 0)
(1.0909e-05 3.091e-05 0)
(1.0917e-05 3.1082e-05 0)
(1.0925e-05 3.1252e-05 0)
(1.0931e-05 3.1421e-05 0)
(1.0937e-05 3.1589e-05 0)
(1.0943e-05 3.1756e-05 0)
(1.0948e-05 3.1922e-05 0)
(1.0952e-05 3.2086e-05 0)
(1.0955e-05 3.2249e-05 0)
(1.0958e-05 3.241e-05 0)
(1.0961e-05 3.2571e-05 0)
(1.0964e-05 3.273e-05 0)
(1.0966e-05 3.2888e-05 0)
(1.0968e-05 3.3046e-05 0)
(1.0969e-05 3.3204e-05 0)
(1.097e-05 3.3363e-05 0)
(1.0971e-05 3.3523e-05 0)
(1.0975e-05 3.3683e-05 0)
(1.0984e-05 3.3845e-05 0)
(1.1e-05 3.4008e-05 0)
(1.1017e-05 3.417e-05 0)
(1.1033e-05 3.4331e-05 0)
(1.1047e-05 3.4491e-05 0)
(1.106e-05 3.465e-05 0)
(1.1072e-05 3.4808e-05 0)
(1.1084e-05 3.4965e-05 0)
(1.1096e-05 3.5121e-05 0)
(1.1107e-05 3.5277e-05 0)
(1.1117e-05 3.5432e-05 0)
(1.1127e-05 3.5586e-05 0)
(1.1137e-05 3.574e-05 0)
(1.1147e-05 3.5893e-05 0)
(1.1156e-05 3.6045e-05 0)
(1.1165e-05 3.6198e-05 0)
(1.1174e-05 3.6349e-05 0)
(1.1183e-05 3.65e-05 0)
(1.1192e-05 3.6651e-05 0)
(1.12e-05 3.6801e-05 0)
(1.1208e-05 3.6951e-05 0)
(1.1216e-05 3.7101e-05 0)
(1.1224e-05 3.7249e-05 0)
(1.1232e-05 3.7398e-05 0)
(1.1239e-05 3.7546e-05 0)
(1.1247e-05 3.7694e-05 0)
(1.1254e-05 3.7842e-05 0)
(1.1261e-05 3.7989e-05 0)
(1.1268e-05 3.8136e-05 0)
(1.1275e-05 3.8282e-05 0)
(1.1281e-05 3.8428e-05 0)
(1.1288e-05 3.8574e-05 0)
(1.1294e-05 3.872e-05 0)
(1.13e-05 3.8865e-05 0)
(1.1305e-05 3.901e-05 0)
(1.1311e-05 3.9154e-05 0)
(1.1316e-05 3.9299e-05 0)
(1.1321e-05 3.9442e-05 0)
(1.1326e-05 3.9586e-05 0)
(1.133e-05 3.9729e-05 0)
(1.1335e-05 3.9872e-05 0)
(1.1339e-05 4.0015e-05 0)
(1.1342e-05 4.0157e-05 0)
(1.1346e-05 4.0299e-05 0)
(1.1349e-05 4.044e-05 0)
(1.1352e-05 4.0581e-05 0)
(1.1355e-05 4.0722e-05 0)
(1.1357e-05 4.0862e-05 0)
(1.136e-05 4.1002e-05 0)
(1.1362e-05 4.1141e-05 0)
(1.1363e-05 4.128e-05 0)
(1.1365e-05 4.1419e-05 0)
(1.1366e-05 4.1557e-05 0)
(1.1367e-05 4.1694e-05 0)
(1.1368e-05 4.1831e-05 0)
(1.1369e-05 4.1968e-05 0)
(1.1369e-05 4.2104e-05 0)
(1.1369e-05 4.224e-05 0)
(1.1369e-05 4.2375e-05 0)
(1.1369e-05 4.251e-05 0)
(1.1369e-05 4.2644e-05 0)
(1.1369e-05 4.2778e-05 0)
(1.1368e-05 4.2912e-05 0)
(1.1368e-05 4.3045e-05 0)
(1.1367e-05 4.3177e-05 0)
(1.1366e-05 4.3309e-05 0)
(1.1366e-05 4.3441e-05 0)
(1.1365e-05 4.3572e-05 0)
(1.1364e-05 4.3703e-05 0)
(1.1363e-05 4.3834e-05 0)
(1.1363e-05 4.3964e-05 0)
(1.1362e-05 4.4094e-05 0)
(1.1361e-05 4.4224e-05 0)
(1.1361e-05 4.4353e-05 0)
(1.136e-05 4.4482e-05 0)
(1.136e-05 4.4611e-05 0)
(1.1359e-05 4.474e-05 0)
(1.1359e-05 4.4869e-05 0)
(1.1359e-05 4.4998e-05 0)
(1.1359e-05 4.5127e-05 0)
(1.1358e-05 4.5256e-05 0)
(1.1358e-05 4.5385e-05 0)
(1.1358e-05 4.5514e-05 0)
(3.9747e-08 3.4728e-08 0)
(1.2708e-07 1.0686e-07 0)
(2.1692e-07 1.7907e-07 0)
(3.0493e-07 2.4917e-07 0)
(3.8973e-07 3.1727e-07 0)
(4.7123e-07 3.8409e-07 0)
(5.4966e-07 4.502e-07 0)
(6.2528e-07 5.1596e-07 0)
(6.9832e-07 5.8156e-07 0)
(7.6897e-07 6.4713e-07 0)
(8.3739e-07 7.1272e-07 0)
(9.0374e-07 7.7835e-07 0)
(9.6814e-07 8.4404e-07 0)
(1.0307e-06 9.0977e-07 0)
(1.0915e-06 9.7551e-07 0)
(1.1507e-06 1.0412e-06 0)
(1.2084e-06 1.1069e-06 0)
(1.2645e-06 1.1725e-06 0)
(1.3193e-06 1.2379e-06 0)
(1.3728e-06 1.3032e-06 0)
(1.425e-06 1.3683e-06 0)
(1.476e-06 1.4332e-06 0)
(1.5259e-06 1.4979e-06 0)
(1.5747e-06 1.5623e-06 0)
(1.6226e-06 1.6264e-06 0)
(1.6694e-06 1.6903e-06 0)
(1.7154e-06 1.7538e-06 0)
(1.7606e-06 1.8171e-06 0)
(1.805e-06 1.8801e-06 0)
(1.8486e-06 1.9427e-06 0)
(1.8916e-06 2.0051e-06 0)
(1.9339e-06 2.0672e-06 0)
(1.9756e-06 2.129e-06 0)
(2.0168e-06 2.1906e-06 0)
(2.0574e-06 2.2519e-06 0)
(2.0976e-06 2.313e-06 0)
(2.1374e-06 2.3738e-06 0)
(2.1767e-06 2.4345e-06 0)
(2.2158e-06 2.4951e-06 0)
(2.2545e-06 2.5555e-06 0)
(2.2929e-06 2.6158e-06 0)
(2.3311e-06 2.6761e-06 0)
(2.3692e-06 2.7363e-06 0)
(2.407e-06 2.7966e-06 0)
(2.4447e-06 2.8569e-06 0)
(2.4823e-06 2.9174e-06 0)
(2.5198e-06 2.978e-06 0)
(2.5572e-06 3.0388e-06 0)
(2.5947e-06 3.0999e-06 0)
(2.6321e-06 3.1614e-06 0)
(2.6695e-06 3.2232e-06 0)
(2.707e-06 3.2855e-06 0)
(2.7445e-06 3.3484e-06 0)
(2.782e-06 3.4118e-06 0)
(2.8196e-06 3.4758e-06 0)
(2.8572e-06 3.5406e-06 0)
(2.8949e-06 3.6061e-06 0)
(2.9326e-06 3.6725e-06 0)
(2.9704e-06 3.7397e-06 0)
(3.0081e-06 3.8077e-06 0)
(3.0459e-06 3.8767e-06 0)
(3.0836e-06 3.9465e-06 0)
(3.1213e-06 4.0173e-06 0)
(3.159e-06 4.089e-06 0)
(3.1966e-06 4.1615e-06 0)
(3.2341e-06 4.2349e-06 0)
(3.2715e-06 4.3092e-06 0)
(3.3088e-06 4.3843e-06 0)
(3.346e-06 4.4601e-06 0)
(3.383e-06 4.5366e-06 0)
(3.42e-06 4.6139e-06 0)
(3.4568e-06 4.6917e-06 0)
(3.4935e-06 4.7702e-06 0)
(3.5301e-06 4.8493e-06 0)
(3.5665e-06 4.9289e-06 0)
(3.6028e-06 5.009e-06 0)
(3.6391e-06 5.0897e-06 0)
(3.6752e-06 5.1707e-06 0)
(3.7112e-06 5.2523e-06 0)
(3.7471e-06 5.3343e-06 0)
(3.7829e-06 5.4166e-06 0)
(3.8186e-06 5.4994e-06 0)
(3.8542e-06 5.5826e-06 0)
(3.8898e-06 5.6661e-06 0)
(3.9252e-06 5.75e-06 0)
(3.9606e-06 5.8343e-06 0)
(3.9959e-06 5.9189e-06 0)
(4.0311e-06 6.0038e-06 0)
(4.0663e-06 6.089e-06 0)
(4.1014e-06 6.1746e-06 0)
(4.1364e-06 6.2605e-06 0)
(4.1713e-06 6.3467e-06 0)
(4.2062e-06 6.4332e-06 0)
(4.241e-06 6.5199e-06 0)
(4.2758e-06 6.607e-06 0)
(4.3104e-06 6.6943e-06 0)
(4.3451e-06 6.7819e-06 0)
(4.3796e-06 6.8698e-06 0)
(4.4141e-06 6.9579e-06 0)
(4.4486e-06 7.0462e-06 0)
(4.4829e-06 7.1348e-06 0)
(4.5172e-06 7.2236e-06 0)
(4.5515e-06 7.3127e-06 0)
(4.5856e-06 7.4019e-06 0)
(4.6197e-06 7.4914e-06 0)
(4.6537e-06 7.5811e-06 0)
(4.6877e-06 7.6709e-06 0)
(4.7215e-06 7.761e-06 0)
(4.7553e-06 7.8512e-06 0)
(4.7891e-06 7.9416e-06 0)
(4.8227e-06 8.0321e-06 0)
(4.8563e-06 8.1227e-06 0)
(4.8898e-06 8.2135e-06 0)
(4.9232e-06 8.3044e-06 0)
(4.9565e-06 8.3954e-06 0)
(4.9897e-06 8.4865e-06 0)
(5.0229e-06 8.5777e-06 0)
(5.056e-06 8.6689e-06 0)
(5.089e-06 8.7602e-06 0)
(5.1219e-06 8.8515e-06 0)
(5.1547e-06 8.9429e-06 0)
(5.1874e-06 9.0342e-06 0)
(5.22e-06 9.1255e-06 0)
(5.2526e-06 9.2168e-06 0)
(5.2851e-06 9.3081e-06 0)
(5.3175e-06 9.3993e-06 0)
(5.3498e-06 9.4904e-06 0)
(5.382e-06 9.5814e-06 0)
(5.4142e-06 9.6723e-06 0)
(5.4463e-06 9.7631e-06 0)
(5.4783e-06 9.8537e-06 0)
(5.5102e-06 9.9442e-06 0)
(5.5421e-06 1.0035e-05 0)
(5.5739e-06 1.0125e-05 0)
(5.6057e-06 1.0215e-05 0)
(5.6375e-06 1.0304e-05 0)
(5.6692e-06 1.0394e-05 0)
(5.7009e-06 1.0483e-05 0)
(5.7326e-06 1.0572e-05 0)
(5.7643e-06 1.0661e-05 0)
(5.796e-06 1.075e-05 0)
(5.8277e-06 1.0838e-05 0)
(5.8595e-06 1.0927e-05 0)
(5.8913e-06 1.1015e-05 0)
(5.9232e-06 1.1103e-05 0)
(5.9551e-06 1.119e-05 0)
(5.9872e-06 1.1278e-05 0)
(6.0193e-06 1.1366e-05 0)
(6.0515e-06 1.1453e-05 0)
(6.0839e-06 1.1541e-05 0)
(6.1164e-06 1.1629e-05 0)
(6.149e-06 1.1717e-05 0)
(6.1818e-06 1.1804e-05 0)
(6.2147e-06 1.1893e-05 0)
(6.2477e-06 1.1981e-05 0)
(6.2809e-06 1.2069e-05 0)
(6.3142e-06 1.2158e-05 0)
(6.3477e-06 1.2247e-05 0)
(6.3813e-06 1.2337e-05 0)
(6.415e-06 1.2427e-05 0)
(6.4489e-06 1.2517e-05 0)
(6.483e-06 1.2608e-05 0)
(6.5171e-06 1.2699e-05 0)
(6.5514e-06 1.2791e-05 0)
(6.5858e-06 1.2884e-05 0)
(6.6203e-06 1.2977e-05 0)
(6.6549e-06 1.307e-05 0)
(6.6896e-06 1.3164e-05 0)
(6.7243e-06 1.3259e-05 0)
(6.7592e-06 1.3354e-05 0)
(6.7941e-06 1.345e-05 0)
(6.8291e-06 1.3546e-05 0)
(6.8641e-06 1.3643e-05 0)
(6.8991e-06 1.374e-05 0)
(6.9342e-06 1.3838e-05 0)
(6.9694e-06 1.3936e-05 0)
(7.0045e-06 1.4035e-05 0)
(7.0397e-06 1.4134e-05 0)
(7.0749e-06 1.4234e-05 0)
(7.1102e-06 1.4334e-05 0)
(7.1454e-06 1.4434e-05 0)
(7.1808e-06 1.4535e-05 0)
(7.2161e-06 1.4636e-05 0)
(7.2515e-06 1.4737e-05 0)
(7.2869e-06 1.4839e-05 0)
(7.3224e-06 1.4941e-05 0)
(7.3579e-06 1.5043e-05 0)
(7.3934e-06 1.5146e-05 0)
(7.429e-06 1.5249e-05 0)
(7.4646e-06 1.5353e-05 0)
(7.5002e-06 1.5456e-05 0)
(7.5359e-06 1.556e-05 0)
(7.5715e-06 1.5665e-05 0)
(7.6072e-06 1.577e-05 0)
(7.6429e-06 1.5875e-05 0)
(7.6785e-06 1.598e-05 0)
(7.7142e-06 1.6086e-05 0)
(7.7498e-06 1.6192e-05 0)
(7.7854e-06 1.6298e-05 0)
(7.821e-06 1.6404e-05 0)
(7.8565e-06 1.6511e-05 0)
(7.892e-06 1.6618e-05 0)
(7.9274e-06 1.6725e-05 0)
(7.9629e-06 1.6833e-05 0)
(7.9982e-06 1.6941e-05 0)
(8.0335e-06 1.7048e-05 0)
(8.0687e-06 1.7156e-05 0)
(8.1039e-06 1.7265e-05 0)
(8.139e-06 1.7373e-05 0)
(8.174e-06 1.7482e-05 0)
(8.2089e-06 1.759e-05 0)
(8.2438e-06 1.7699e-05 0)
(8.2786e-06 1.7808e-05 0)
(8.3133e-06 1.7916e-05 0)
(8.348e-06 1.8025e-05 0)
(8.3826e-06 1.8134e-05 0)
(8.4172e-06 1.8242e-05 0)
(8.4518e-06 1.8351e-05 0)
(8.4864e-06 1.846e-05 0)
(8.521e-06 1.8568e-05 0)
(8.5556e-06 1.8677e-05 0)
(8.5903e-06 1.8786e-05 0)
(8.6251e-06 1.8894e-05 0)
(8.66e-06 1.9003e-05 0)
(8.695e-06 1.9112e-05 0)
(8.7301e-06 1.9221e-05 0)
(8.7655e-06 1.933e-05 0)
(8.801e-06 1.944e-05 0)
(8.8368e-06 1.955e-05 0)
(8.8727e-06 1.9661e-05 0)
(8.9089e-06 1.9772e-05 0)
(8.9454e-06 1.9884e-05 0)
(8.982e-06 1.9998e-05 0)
(9.019e-06 2.0112e-05 0)
(9.0561e-06 2.0227e-05 0)
(9.0935e-06 2.0343e-05 0)
(9.1311e-06 2.0461e-05 0)
(9.1688e-06 2.0581e-05 0)
(9.2067e-06 2.0702e-05 0)
(9.2447e-06 2.0825e-05 0)
(9.2827e-06 2.095e-05 0)
(9.3207e-06 2.1076e-05 0)
(9.3587e-06 2.1205e-05 0)
(9.3966e-06 2.1336e-05 0)
(9.4344e-06 2.1469e-05 0)
(9.4719e-06 2.1604e-05 0)
(9.5092e-06 2.1742e-05 0)
(9.5461e-06 2.1882e-05 0)
(9.5826e-06 2.2024e-05 0)
(9.6186e-06 2.2169e-05 0)
(9.654e-06 2.2316e-05 0)
(9.6888e-06 2.2465e-05 0)
(9.7228e-06 2.2617e-05 0)
(9.7561e-06 2.2771e-05 0)
(9.7885e-06 2.2927e-05 0)
(9.82e-06 2.3085e-05 0)
(9.8505e-06 2.3246e-05 0)
(9.88e-06 2.3408e-05 0)
(9.9085e-06 2.3572e-05 0)
(9.9359e-06 2.3737e-05 0)
(9.9622e-06 2.3904e-05 0)
(9.9873e-06 2.4071e-05 0)
(1.0012e-05 2.4239e-05 0)
(1.0035e-05 2.4407e-05 0)
(1.0058e-05 2.4574e-05 0)
(1.0082e-05 2.4743e-05 0)
(1.0105e-05 2.4912e-05 0)
(1.0129e-05 2.5083e-05 0)
(1.0154e-05 2.5258e-05 0)
(1.0184e-05 2.5436e-05 0)
(1.0221e-05 2.562e-05 0)
(1.0261e-05 2.5807e-05 0)
(1.03e-05 2.5994e-05 0)
(1.0336e-05 2.6181e-05 0)
(1.0373e-05 2.6369e-05 0)
(1.0414e-05 2.6558e-05 0)
(1.0458e-05 2.6746e-05 0)
(1.0484e-05 2.6928e-05 0)
(1.0493e-05 2.7106e-05 0)
(1.0495e-05 2.7284e-05 0)
(1.0496e-05 2.7461e-05 0)
(1.0497e-05 2.764e-05 0)
(1.0498e-05 2.7819e-05 0)
(1.0499e-05 2.7999e-05 0)
(1.05e-05 2.8179e-05 0)
(1.0504e-05 2.8361e-05 0)
(1.0517e-05 2.8548e-05 0)
(1.0543e-05 2.8739e-05 0)
(1.0574e-05 2.8931e-05 0)
(1.0599e-05 2.912e-05 0)
(1.0619e-05 2.9306e-05 0)
(1.0637e-05 2.9489e-05 0)
(1.0654e-05 2.9671e-05 0)
(1.067e-05 2.9851e-05 0)
(1.0685e-05 3.003e-05 0)
(1.0699e-05 3.0208e-05 0)
(1.0711e-05 3.0385e-05 0)
(1.0723e-05 3.056e-05 0)
(1.0734e-05 3.0734e-05 0)
(1.0743e-05 3.0907e-05 0)
(1.0752e-05 3.1079e-05 0)
(1.0761e-05 3.125e-05 0)
(1.0768e-05 3.142e-05 0)
(1.0775e-05 3.1588e-05 0)
(1.0781e-05 3.1755e-05 0)
(1.0787e-05 3.1921e-05 0)
(1.0792e-05 3.2085e-05 0)
(1.0796e-05 3.2248e-05 0)
(1.08e-05 3.241e-05 0)
(1.0803e-05 3.257e-05 0)
(1.0806e-05 3.2729e-05 0)
(1.0808e-05 3.2887e-05 0)
(1.081e-05 3.3045e-05 0)
(1.0811e-05 3.3203e-05 0)
(1.0812e-05 3.3362e-05 0)
(1.0814e-05 3.3522e-05 0)
(1.0821e-05 3.3682e-05 0)
(1.0834e-05 3.3843e-05 0)
(1.0849e-05 3.4005e-05 0)
(1.0865e-05 3.4167e-05 0)
(1.0879e-05 3.4328e-05 0)
(1.0893e-05 3.4487e-05 0)
(1.0906e-05 3.4646e-05 0)
(1.0919e-05 3.4804e-05 0)
(1.0931e-05 3.4961e-05 0)
(1.0942e-05 3.5118e-05 0)
(1.0954e-05 3.5273e-05 0)
(1.0965e-05 3.5429e-05 0)
(1.0975e-05 3.5583e-05 0)
(1.0985e-05 3.5737e-05 0)
(1.0996e-05 3.589e-05 0)