/*--------------------------------*- C++ -*----------------------------------*\
| =========                 |                                                 |
| \\      /  F ield         | OpenFOAM: The Open Source CFD Toolbox           |
|  \\    /   O peration     | Version:  5.x                                   |
|   \\  /    A nd           | Web:      www.OpenFOAM.org                      |
|    \\/     M anipulation  |                                                 |
\*---------------------------------------------------------------------------*/
FoamFile
{
    version     2.0;
    format      ascii;
    class       volScalarField;
    location    "30";
    object      gamma;
}
// * * * * * * * * * * * * * * * * * * * * * * * * * * * * * * * * * * * * * //

dimensions      [0 0 0 0 0 0 0];

internalField   nonuniform List<scalar> 
80000
(
1
1
1
1
1
1
1
1
1
1
1
1
0.99999
0.99998
0.99998
0.99997
0.99996
0.99995
0.99995
0.99994
0.99993
0.99992
0.99991
0.9999
0.99989
0.99988
0.99986
0.99984
0.99982
0.9998
0.99978
0.99975
0.99973
0.9997
0.99968
0.99965
0.99962
0.9996
0.99957
0.99954
0.99951
0.99948
0.99945
0.99942
0.99939
0.99937
0.99934
0.99931
0.99929
0.99926
0.99924
0.99922
0.9992
0.99918
0.99917
0.99915
0.99914
0.99913
0.99912
0.99911
0.9991
0.99909
0.99909
0.99908
0.99908
0.99907
0.99907
0.99907
0.99907
0.99907
0.99907
0.99907
0.99907
0.99907
0.99907
0.99907
0.99907
0.99907
0.99907
0.99907
0.99907
0.99907
0.99907
0.99907
0.99908
0.99909
0.9991
0.99912
0.99915
0.99918
0.99922
0.99928
0.99936
0.99938
0.99939
0.99941
0.99935
0.99927
0.99925
0.99911
0.9989
0.99868
0.99849
0.99834
0.99839
0.99839
0.99836
0.99833
0.9983
0.99828
0.99827
0.99825
0.99823
0.99822
0.9982
0.99819
0.99818
0.99816
0.99815
0.99814
0.99813
0.99812
0.99811
0.9981
0.99809
0.99808
0.99807
0.99806
0.99806
0.99805
0.99804
0.99804
0.99803
0.99803
0.99802
0.99802
0.99802
0.99802
0.99802
0.99802
0.99802
0.99803
0.99803
0.99804
0.99805
0.99806
0.99807
0.99808
0.99809
0.99811
0.99812
0.99814
0.99815
0.99817
0.99819
0.9982
0.99822
0.99824
0.99825
0.99827
0.99829
0.9983
0.99832
0.99833
0.99835
0.99836
0.99838
0.99839
0.9984
0.99841
0.99842
0.99843
0.99844
0.99845
0.99846
0.99847
0.99848
0.99848
0.99849
0.99849
0.9985
0.9985
0.9985
0.99851
0.99851
0.99851
0.9985
0.9985
0.9985
0.9985
0.99849
0.99849
0.99848
0.99847
0.99847
0.99846
0.99845
0.99844
0.99843
0.99841
0.9984
0.99838
0.99837
0.99835
0.99833
0.99831
0.99829
0.99827
0.99825
0.99822
0.9982
0.99817
0.99814
0.99811
0.99809
0.99806
0.99803
0.998
0.99797
0.99793
0.9979
0.99787
0.99785
0.99782
0.99779
0.99777
0.99775
0.99773
0.99771
0.9977
0.99769
0.99768
0.99767
0.99767
0.99767
0.99767
0.99767
0.99766
0.99766
0.99765
0.99764
0.99762
0.99759
0.99756
0.99751
0.99744
0.99736
0.99726
0.99712
0.99695
0.99676
0.9966
0.99623
0.99535
0.99338
0.99045
0.98667
0.98309
0.97972
0.97499
0.96533
0.94603
0.90767
0.8296
0.67316
0.36841
0.13354
0.05065
0.021472
0.010887
0.006891
0.0054883
0.0051875
0.0053339
0.0054252
0.0050194
0.0045419
0.0047293
0.0064968
0.010375
0.018113
0.025808
0.031363
0.030992
0.022452
0.014397
0.0084846
0.0060559
0.0054259
0.0061903
0.0064012
0.0063664
0.0062647
0.0061543
0.0060443
0.0059665
0.0059226
0.0058925
0.0058749
0.0058366
0.0057835
0.005718
0.0056491
0.0055924
0.0055489
0.0055142
0.0054914
0.0054618
0.0054011
0.0053112
0.0052142
0.0052052
0.0054786
0.00636
0.0071324
0.0053509
0.0034078
0.0019218
0.0013288
0.0011847
0.0014003
0.001451
0.0014298
0.0014009
0.0013819
0.0013703
0.0013598
0.0013491
0.0013381
0.0013273
0.0013167
0.0013063
0.0012961
0.0012861
0.0012762
0.0012666
0.001257
0.0012476
0.0012384
0.0012293
0.0012203
0.0012116
0.0012029
0.0011945
0.0011862
0.0011781
0.0011701
0.0011624
0.0011548
0.0011475
0.0011404
0.0011335
0.0011268
0.0011204
0.0011143
0.0011084
0.0011028
0.0010975
0.0010924
0.0010877
0.0010832
0.0010791
0.0010752
0.0010717
0.0010684
0.0010654
0.0010627
0.0010603
0.0010582
0.0010563
0.0010546
0.0010532
0.001052
0.001051
0.0010502
0.0010495
0.001049
0.0010487
0.0010484
0.0010482
0.0010481
0.0010481
0.0010481
0.0010481
0.0010482
0.0010483
0.0010484
0.0010485
0.0010486
0.001048
0.0010461
0.0010457
0.0010532
0.0010736
0.0010821
0.00098276
0.00089158
0.00095563
0.0010447
0.0012627
1
1
1
1
1
1
1
1
1
1
1
1
0.99999
0.99999
0.99999
0.99998
0.99998
0.99997
0.99997
0.99996
0.99996
0.99995
0.99994
0.99993
0.99992
0.99991
0.9999
0.99988
0.99986
0.99985
0.99983
0.99981
0.99979
0.99976
0.99974
0.99972
0.99969
0.99967
0.99965
0.99962
0.9996
0.99957
0.99955
0.99952
0.9995
0.99947
0.99945
0.99943
0.9994
0.99938
0.99936
0.99935
0.99933
0.99931
0.9993
0.99929
0.99927
0.99926
0.99925
0.99925
0.99924
0.99923
0.99923
0.99922
0.99922
0.99922
0.99921
0.99921
0.99921
0.99921
0.99921
0.99921
0.99921
0.99921
0.99921
0.99921
0.99921
0.99921
0.99921
0.99921
0.99921
0.99921
0.99922
0.99923
0.99925
0.99927
0.9993
0.99934
0.99937
0.99941
0.99941
0.9994
0.9994
0.99934
0.99928
0.99927
0.99918
0.99908
0.99901
0.99888
0.99874
0.99869
0.99861
0.99854
0.99858
0.99858
0.99856
0.99853
0.99851
0.9985
0.99848
0.99847
0.99846
0.99845
0.99843
0.99842
0.99841
0.9984
0.99839
0.99838
0.99837
0.99836
0.99835
0.99835
0.99834
0.99833
0.99832
0.99832
0.99831
0.9983
0.9983
0.99829
0.99829
0.99829
0.99828
0.99828
0.99828
0.99828
0.99828
0.99828
0.99828
0.99829
0.99829
0.9983
0.9983
0.99831
0.99832
0.99833
0.99834
0.99835
0.99836
0.99838
0.99839
0.9984
0.99842
0.99843
0.99845
0.99846
0.99848
0.99849
0.9985
0.99852
0.99853
0.99854
0.99856
0.99857
0.99858
0.99859
0.9986
0.99861
0.99862
0.99863
0.99864
0.99865
0.99865
0.99866
0.99867
0.99867
0.99868
0.99868
0.99868
0.99869
0.99869
0.99869
0.99869
0.99869
0.99869
0.99869
0.99868
0.99868
0.99868
0.99867
0.99867
0.99866
0.99866
0.99865
0.99864
0.99863
0.99862
0.99861
0.9986
0.99858
0.99857
0.99855
0.99854
0.99852
0.9985
0.99848
0.99846
0.99844
0.99842
0.9984
0.99837
0.99835
0.99832
0.9983
0.99827
0.99824
0.99821
0.99819
0.99816
0.99813
0.9981
0.99808
0.99805
0.99803
0.99801
0.99799
0.99797
0.99796
0.99795
0.99794
0.99793
0.99792
0.99791
0.99791
0.9979
0.9979
0.99789
0.99787
0.99786
0.99783
0.9978
0.99777
0.99772
0.99766
0.99758
0.99748
0.99735
0.9972
0.99704
0.9969
0.99666
0.99614
0.995
0.99314
0.99046
0.98728
0.98336
0.97875
0.97164
0.9616
0.94552
0.91921
0.87015
0.7791
0.59955
0.2736
0.097947
0.037937
0.017195
0.0095931
0.0065096
0.0050975
0.00422
0.0037898
0.0039105
0.0049335
0.00772
0.013406
0.020132
0.026031
0.027893
0.024167
0.016363
0.010266
0.0064146
0.0050786
0.0048952
0.0054918
0.0056415
0.0055938
0.0054898
0.00539
0.0053063
0.0052512
0.0052184
0.0051957
0.0051594
0.0051125
0.0050586
0.0049988
0.0049402
0.0048953
0.0048593
0.0048327
0.0048034
0.0047656
0.0046996
0.0046164
0.004549
0.0046106
0.0049899
0.0053607
0.0050868
0.0035132
0.0021825
0.0013224
0.0010445
0.0010204
0.0011806
0.001212
0.0011917
0.0011678
0.0011523
0.0011425
0.0011336
0.0011245
0.0011152
0.0011061
0.0010972
0.0010885
0.0010799
0.0010715
0.0010633
0.0010551
0.0010471
0.0010393
0.0010315
0.0010239
0.0010164
0.001009
0.0010018
0.00099469
0.00098772
0.0009809
0.00097422
0.00096771
0.00096135
0.00095517
0.00094917
0.00094335
0.00093773
0.00093231
0.0009271
0.00092211
0.00091735
0.00091281
0.00090851
0.00090445
0.00090063
0.00089706
0.00089373
0.00089065
0.00088781
0.00088521
0.00088285
0.00088071
0.0008788
0.0008771
0.0008756
0.00087429
0.00087317
0.00087222
0.00087142
0.00087076
0.00087023
0.00086981
0.00086949
0.00086925
0.00086909
0.00086898
0.00086892
0.00086889
0.00086888
0.00086889
0.00086895
0.00086907
0.00086911
0.00086855
0.00086692
0.00086659
0.00087315
0.00089079
0.000898
0.00081173
0.00073376
0.000791
0.00086514
0.0010447
1
1
1
1
1
1
1
1
1
1
1
1
1
0.99999
0.99999
0.99999
0.99998
0.99998
0.99997
0.99997
0.99996
0.99995
0.99994
0.99994
0.99993
0.99991
0.9999
0.99989
0.99987
0.99986
0.99984
0.99982
0.9998
0.99978
0.99976
0.99974
0.99971
0.99969
0.99967
0.99964
0.99962
0.9996
0.99957
0.99955
0.99953
0.9995
0.99948
0.99946
0.99944
0.99942
0.9994
0.99938
0.99937
0.99935
0.99934
0.99932
0.99931
0.9993
0.99929
0.99928
0.99928
0.99927
0.99927
0.99926
0.99926
0.99925
0.99925
0.99925
0.99925
0.99925
0.99924
0.99924
0.99924
0.99924
0.99924
0.99924
0.99924
0.99924
0.99925
0.99925
0.99926
0.99928
0.9993
0.99932
0.99936
0.9994
0.99941
0.9994
0.99938
0.99937
0.99933
0.9993
0.99926
0.99917
0.99906
0.99899
0.99887
0.99875
0.99874
0.99868
0.9986
0.99862
0.9986
0.99859
0.99861
0.99861
0.99859
0.99857
0.99856
0.99855
0.99854
0.99852
0.99851
0.9985
0.99849
0.99848
0.99847
0.99846
0.99846
0.99845
0.99844
0.99843
0.99842
0.99842
0.99841
0.9984
0.9984
0.99839
0.99838
0.99838
0.99837
0.99837
0.99837
0.99836
0.99836
0.99836
0.99836
0.99836
0.99836
0.99836
0.99836
0.99836
0.99837
0.99837
0.99838
0.99838
0.99839
0.9984
0.99841
0.99842
0.99843
0.99844
0.99845
0.99847
0.99848
0.99849
0.9985
0.99852
0.99853
0.99854
0.99855
0.99857
0.99858
0.99859
0.9986
0.99861
0.99862
0.99863
0.99864
0.99865
0.99866
0.99867
0.99868
0.99868
0.99869
0.9987
0.9987
0.99871
0.99871
0.99871
0.99872
0.99872
0.99872
0.99872
0.99872
0.99872
0.99872
0.99872
0.99872
0.99872
0.99871
0.99871
0.9987
0.9987
0.99869
0.99868
0.99868
0.99867
0.99866
0.99865
0.99864
0.99862
0.99861
0.9986
0.99858
0.99856
0.99855
0.99853
0.99851
0.99849
0.99847
0.99845
0.99842
0.9984
0.99838
0.99835
0.99832
0.9983
0.99827
0.99824
0.99822
0.99819
0.99816
0.99814
0.99811
0.99809
0.99807
0.99804
0.99802
0.99801
0.99799
0.99798
0.99796
0.99795
0.99794
0.99793
0.99791
0.9979
0.99789
0.99787
0.99784
0.99781
0.99778
0.99773
0.99768
0.99762
0.99754
0.99744
0.99732
0.99718
0.99703
0.9969
0.99676
0.99646
0.99578
0.99482
0.9931
0.99111
0.98856
0.98625
0.98354
0.97989
0.97297
0.96123
0.94171
0.91134
0.8636
0.76969
0.56527
0.21969
0.07686
0.030758
0.014499
0.0079316
0.0051469
0.0042481
0.0045473
0.0062818
0.010546
0.016481
0.022513
0.025534
0.023451
0.017898
0.011559
0.0071587
0.0052977
0.0046965
0.004797
0.0052428
0.0053316
0.0052586
0.0051546
0.0050657
0.0049994
0.0049569
0.0049302
0.0048936
0.004848
0.0047958
0.00474
0.004686
0.0046358
0.0045977
0.0045647
0.0045373
0.0045025
0.0044559
0.0043827
0.0043042
0.0042778
0.0044371
0.0049847
0.0049058
0.0040222
0.0025627
0.0014857
0.0010154
0.00092963
0.00097799
0.0010942
0.001109
0.0010882
0.0010676
0.0010542
0.0010454
0.0010372
0.0010288
0.0010203
0.001012
0.0010039
0.00099602
0.00098827
0.00098065
0.00097317
0.00096581
0.00095857
0.00095145
0.00094444
0.00093754
0.00093075
0.00092407
0.00091751
0.00091107
0.00090475
0.00089855
0.00089249
0.00088656
0.00088077
0.00087514
0.00086966
0.00086435
0.00085921
0.00085425
0.00084947
0.00084489
0.0008405
0.00083631
0.00083234
0.00082857
0.00082502
0.00082168
0.00081857
0.00081567
0.00081298
0.00081051
0.00080825
0.00080619
0.00080433
0.00080266
0.00080117
0.00079986
0.00079871
0.00079771
0.00079686
0.00079613
0.00079553
0.00079503
0.00079462
0.0007943
0.00079405
0.00079386
0.00079372
0.00079362
0.00079355
0.00079351
0.00079352
0.0007936
0.00079362
0.00079309
0.00079156
0.00079126
0.0007974
0.00081387
0.00082059
0.00074017
0.0006673
0.00072139
0.000791
0.00095563
0.99999
1
1
1
1
1
1
1
1
1
1
1
1
1
0.99999
0.99999
0.99999
0.99998
0.99998
0.99997
0.99996
0.99995
0.99994
0.99993
0.99992
0.99991
0.9999
0.99989
0.99987
0.99985
0.99984
0.99982
0.9998
0.99978
0.99976
0.99974
0.99971
0.99969
0.99967
0.99965
0.99962
0.9996
0.99958
0.99955
0.99953
0.99951
0.99949
0.99947
0.99945
0.99943
0.99941
0.99939
0.99937
0.99936
0.99934
0.99933
0.99932
0.99931
0.9993
0.99929
0.99928
0.99928
0.99927
0.99927
0.99926
0.99926
0.99925
0.99925
0.99925
0.99925
0.99924
0.99924
0.99924
0.99924
0.99924
0.99925
0.99925
0.99926
0.99927
0.99929
0.99932
0.99935
0.99939
0.9994
0.9994
0.9994
0.99935
0.99928
0.99924
0.99921
0.99912
0.99907
0.99897
0.99881
0.99865
0.9986
0.99847
0.99834
0.99833
0.99832
0.99835
0.99846
0.99853
0.99857
0.99858
0.99857
0.99856
0.99855
0.99854
0.99854
0.99853
0.99852
0.99851
0.9985
0.9985
0.99849
0.99848
0.99847
0.99846
0.99846
0.99845
0.99844
0.99844
0.99843
0.99843
0.99842
0.99841
0.99841
0.9984
0.9984
0.9984
0.99839
0.99839
0.99839
0.99838
0.99838
0.99838
0.99838
0.99838
0.99838
0.99838
0.99838
0.99839
0.99839
0.9984
0.9984
0.99841
0.99842
0.99842
0.99843
0.99844
0.99845
0.99846
0.99847
0.99848
0.99849
0.9985
0.99852
0.99853
0.99854
0.99855
0.99856
0.99857
0.99858
0.99859
0.9986
0.99861
0.99862
0.99863
0.99863
0.99864
0.99865
0.99866
0.99866
0.99867
0.99868
0.99868
0.99869
0.99869
0.99869
0.9987
0.9987
0.9987
0.9987
0.9987
0.9987
0.9987
0.9987
0.9987
0.99869
0.99869
0.99869
0.99868
0.99868
0.99867
0.99867
0.99866
0.99865
0.99864
0.99863
0.99862
0.99861
0.9986
0.99858
0.99857
0.99855
0.99854
0.99852
0.9985
0.99848
0.99846
0.99844
0.99842
0.99839
0.99837
0.99835
0.99832
0.99829
0.99827
0.99824
0.99821
0.99818
0.99816
0.99813
0.9981
0.99807
0.99805
0.99802
0.99799
0.99797
0.99795
0.99793
0.99791
0.99789
0.99786
0.99784
0.99782
0.9978
0.99777
0.99774
0.99771
0.99767
0.99763
0.99757
0.99751
0.99744
0.99736
0.99726
0.99715
0.99703
0.9969
0.99679
0.99674
0.99668
0.99642
0.99607
0.99534
0.9944
0.993
0.99223
0.99173
0.9915
0.99034
0.98846
0.98483
0.97898
0.97026
0.95223
0.90723
0.79547
0.52749
0.16882
0.057408
0.023405
0.011848
0.0082377
0.0080339
0.010854
0.015892
0.021616
0.024403
0.022249
0.016903
0.011354
0.0071126
0.0052278
0.0045443
0.0045313
0.0048504
0.0051034
0.0051036
0.0050029
0.0049
0.0048219
0.0047722
0.0047442
0.0047122
0.0046651
0.0046107
0.0045518
0.0044968
0.0044505
0.0044087
0.0043767
0.0043478
0.0043129
0.0042716
0.0042136
0.0041312
0.0040602
0.0040963
0.0044049
0.0047557
0.0040056
0.0027242
0.0015462
0.00099997
0.00080677
0.00086698
0.00096908
0.0010326
0.0010283
0.001007
0.00098978
0.00097871
0.00097065
0.00096294
0.00095508
0.00094725
0.00093959
0.00093213
0.00092485
0.00091772
0.00091073
0.00090387
0.00089713
0.00089049
0.00088397
0.00087755
0.00087123
0.00086501
0.0008589
0.00085288
0.00084697
0.00084117
0.00083548
0.0008299
0.00082445
0.00081912
0.00081392
0.00080886
0.00080394
0.00079917
0.00079456
0.00079011
0.00078583
0.00078173
0.0007778
0.00077405
0.00077049
0.00076712
0.00076394
0.00076095
0.00075816
0.00075555
0.00075314
0.00075091
0.00074886
0.00074699
0.0007453
0.00074376
0.00074238
0.00074116
0.00074007
0.00073911
0.00073828
0.00073756
0.00073694
0.00073641
0.00073597
0.00073561
0.00073531
0.00073507
0.00073488
0.00073472
0.00073462
0.00073457
0.0007346
0.00073458
0.00073406
0.00073261
0.00073234
0.00073816
0.0007537
0.00075999
0.00068404
0.00061538
0.0006673
0.00073376
0.00089158
0.99998
0.99999
0.99999
1
1
1
1
1
1
1
1
1
0.99999
0.99999
0.99999
0.99998
0.99997
0.99996
0.99995
0.99994
0.99993
0.99992
0.99991
0.99989
0.99988
0.99986
0.99985
0.99983
0.99981
0.99979
0.99977
0.99975
0.99973
0.99971
0.99968
0.99966
0.99963
0.99961
0.99958
0.99956
0.99953
0.9995
0.99948
0.99945
0.99942
0.9994
0.99937
0.99935
0.99932
0.9993
0.99928
0.99926
0.99924
0.99922
0.9992
0.99919
0.99917
0.99916
0.99915
0.99914
0.99913
0.99912
0.99911
0.9991
0.9991
0.99909
0.99909
0.99908
0.99908
0.99908
0.99908
0.99908
0.99908
0.99909
0.9991
0.99912
0.99914
0.99916
0.99919
0.99924
0.99925
0.99925
0.99924
0.99919
0.99912
0.9991
0.99899
0.99885
0.99872
0.99864
0.9985
0.99844
0.99833
0.99816
0.99798
0.99794
0.9979
0.99791
0.99803
0.99812
0.99819
0.99824
0.99826
0.99828
0.99828
0.99828
0.99827
0.99827
0.99826
0.99826
0.99825
0.99825
0.99824
0.99823
0.99823
0.99822
0.99821
0.99821
0.9982
0.99819
0.99819
0.99818
0.99818
0.99817
0.99816
0.99816
0.99815
0.99815
0.99815
0.99814
0.99814
0.99813
0.99813
0.99813
0.99812
0.99812
0.99812
0.99812
0.99812
0.99812
0.99812
0.99813
0.99813
0.99813
0.99814
0.99814
0.99815
0.99815
0.99816
0.99817
0.99818
0.99819
0.9982
0.99821
0.99822
0.99823
0.99824
0.99825
0.99826
0.99827
0.99828
0.99829
0.9983
0.99831
0.99832
0.99833
0.99834
0.99835
0.99836
0.99837
0.99837
0.99838
0.99839
0.9984
0.9984
0.99841
0.99841
0.99842
0.99842
0.99843
0.99843
0.99843
0.99844
0.99844
0.99844
0.99844
0.99844
0.99844
0.99843
0.99843
0.99843
0.99842
0.99842
0.99841
0.99841
0.9984
0.99839
0.99838
0.99837
0.99836
0.99835
0.99834
0.99833
0.99831
0.9983
0.99828
0.99826
0.99824
0.99822
0.9982
0.99818
0.99816
0.99813
0.99811
0.99808
0.99806
0.99803
0.998
0.99797
0.99793
0.9979
0.99787
0.99783
0.9978
0.99776
0.99773
0.99769
0.99765
0.99762
0.99758
0.99755
0.99751
0.99748
0.99745
0.99741
0.99738
0.99734
0.9973
0.99726
0.99721
0.99716
0.99711
0.99704
0.99697
0.9969
0.99681
0.99672
0.99662
0.99652
0.99641
0.9963
0.99621
0.99617
0.99623
0.99624
0.99627
0.99607
0.99578
0.9953
0.9952
0.99545
0.99571
0.99561
0.99516
0.99417
0.99297
0.99189
0.98944
0.98147
0.96109
0.91331
0.80203
0.55464
0.20876
0.076078
0.035482
0.026691
0.025784
0.027838
0.026916
0.022026
0.015922
0.010734
0.0068572
0.0051908
0.0046421
0.0047227
0.0051451
0.005549
0.0056239
0.00554
0.0054051
0.0052968
0.0052233
0.0051839
0.0051468
0.0051042
0.0050393
0.0049722
0.0049108
0.0048608
0.0048177
0.004779
0.0047451
0.0047046
0.0046606
0.0046109
0.0045395
0.0044451
0.0043813
0.0045027
0.0050315
0.0049386
0.0035656
0.0021252
0.0011966
0.00084553
0.00083469
0.0010107
0.0011378
0.0011552
0.0011324
0.0011084
0.0010923
0.0010817
0.0010731
0.0010645
0.0010559
0.0010475
0.0010392
0.0010311
0.0010232
0.0010155
0.001008
0.0010006
0.00099333
0.00098619
0.00097917
0.00097227
0.00096548
0.00095879
0.00095222
0.00094575
0.0009394
0.00093315
0.00092702
0.00092101
0.00091513
0.00090938
0.00090376
0.00089828
0.00089295
0.00088778
0.00088276
0.00087792
0.00087324
0.00086875
0.00086443
0.00086031
0.00085638
0.00085264
0.0008491
0.00084576
0.00084261
0.00083967
0.00083692
0.00083436
0.00083199
0.00082981
0.00082781
0.00082598
0.00082432
0.00082281
0.00082146
0.00082025
0.00081917
0.00081821
0.00081737
0.00081664
0.00081601
0.00081547
0.000815
0.00081462
0.0008143
0.00081403
0.00081383
0.00081371
0.00081368
0.00081361
0.00081301
0.00081142
0.0008111
0.00081742
0.00083427
0.00084112
0.0007588
0.00068404
0.00074017
0.00081173
0.00098276
0.99997
0.99998
0.99999
1
1
1
1
1
1
1
0.99999
0.99999
0.99999
0.99998
0.99997
0.99996
0.99995
0.99994
0.99993
0.99991
0.9999
0.99988
0.99986
0.99985
0.99983
0.99981
0.99979
0.99977
0.99974
0.99972
0.9997
0.99967
0.99964
0.99962
0.99959
0.99956
0.99953
0.9995
0.99947
0.99944
0.99941
0.99938
0.99935
0.99931
0.99928
0.99925
0.99922
0.99919
0.99917
0.99914
0.99911
0.99909
0.99906
0.99904
0.99902
0.999
0.99899
0.99897
0.99896
0.99894
0.99893
0.99892
0.99891
0.9989
0.99889
0.99888
0.99888
0.99887
0.99887
0.99888
0.99888
0.9989
0.99893
0.99896
0.999
0.99904
0.99908
0.99908
0.99907
0.99905
0.99898
0.9989
0.99887
0.99874
0.99859
0.99847
0.99828
0.99806
0.99795
0.99786
0.9977
0.99766
0.99758
0.99752
0.99754
0.99768
0.99778
0.99785
0.99789
0.99792
0.99793
0.99793
0.99793
0.99793
0.99793
0.99793
0.99793
0.99793
0.99793
0.99792
0.99792
0.99792
0.99791
0.99791
0.9979
0.9979
0.99789
0.99789
0.99788
0.99788
0.99787
0.99787
0.99786
0.99786
0.99786
0.99785
0.99785
0.99784
0.99784
0.99784
0.99783
0.99783
0.99783
0.99783
0.99782
0.99782
0.99782
0.99782
0.99782
0.99782
0.99782
0.99782
0.99782
0.99783
0.99783
0.99784
0.99784
0.99785
0.99785
0.99786
0.99787
0.99788
0.99788
0.99789
0.9979
0.99791
0.99792
0.99793
0.99794
0.99795
0.99796
0.99797
0.99798
0.99799
0.998
0.99801
0.99802
0.99803
0.99804
0.99805
0.99806
0.99806
0.99807
0.99808
0.99808
0.99809
0.9981
0.9981
0.99811
0.99811
0.99812
0.99812
0.99812
0.99812
0.99812
0.99812
0.99812
0.99812
0.99812
0.99812
0.99812
0.99811
0.99811
0.9981
0.9981
0.99809
0.99808
0.99807
0.99807
0.99805
0.99804
0.99803
0.99802
0.998
0.99799
0.99797
0.99795
0.99793
0.99791
0.99789
0.99786
0.99784
0.99781
0.99778
0.99775
0.99772
0.99769
0.99766
0.99762
0.99758
0.99754
0.9975
0.99746
0.99741
0.99737
0.99732
0.99727
0.99723
0.99718
0.99713
0.99708
0.99703
0.99698
0.99693
0.99687
0.99682
0.99676
0.99671
0.99664
0.99658
0.99651
0.99643
0.99635
0.99627
0.99618
0.99609
0.99599
0.9959
0.99581
0.99572
0.99564
0.99559
0.99558
0.99563
0.99578
0.99603
0.99618
0.99628
0.99627
0.99638
0.99672
0.997
0.9971
0.99716
0.99696
0.99669
0.99637
0.99608
0.99445
0.9911
0.98352
0.96649
0.92539
0.83393
0.62442
0.27685
0.13024
0.079617
0.054667
0.032934
0.018353
0.010367
0.0060901
0.0045428
0.0043122
0.0047234
0.0054217
0.0060261
0.0061973
0.0061508
0.0060196
0.0058696
0.0057657
0.005698
0.0056532
0.0056045
0.0055492
0.0054665
0.005389
0.0053297
0.0052818
0.0052414
0.0052067
0.0051659
0.0051151
0.005064
0.0050083
0.0049257
0.004821
0.0047696
0.0049813
0.005744
0.0049588
0.0031586
0.0017244
0.0010905
0.0008627
0.0010259
0.0012569
0.0013173
0.0012934
0.0012555
0.0012289
0.0012128
0.0012015
0.0011915
0.0011817
0.001172
0.0011626
0.0011535
0.0011446
0.0011359
0.0011274
0.001119
0.0011108
0.0011028
0.0010949
0.0010872
0.0010796
0.0010721
0.0010647
0.0010575
0.0010504
0.0010434
0.0010365
0.0010298
0.0010232
0.0010167
0.0010104
0.0010042
0.00099812
0.00099224
0.00098652
0.00098097
0.0009756
0.00097041
0.00096541
0.0009606
0.00095599
0.00095159
0.00094739
0.0009434
0.00093962
0.00093605
0.00093268
0.00092953
0.00092658
0.00092383
0.00092128
0.00091892
0.00091674
0.00091475
0.00091292
0.00091126
0.00090975
0.0009084
0.00090718
0.00090609
0.00090512
0.00090427
0.00090353
0.00090288
0.00090232
0.00090185
0.00090146
0.00090114
0.00090092
0.00090082
0.00090069
0.00089999
0.00089822
0.00089785
0.00090467
0.00092293
0.00093036
0.00084112
0.00075999
0.00082059
0.000898
0.0010821
0.99994
0.99996
0.99998
0.99999
0.99999
0.99999
0.99999
0.99999
0.99999
0.99998
0.99998
0.99997
0.99997
0.99996
0.99995
0.99994
0.99993
0.99991
0.9999
0.99988
0.99987
0.99985
0.99983
0.99981
0.99979
0.99977
0.99975
0.99973
0.9997
0.99968
0.99965
0.99963
0.9996
0.99957
0.99954
0.99951
0.99948
0.99945
0.99941
0.99938
0.99935
0.99931
0.99928
0.99924
0.99921
0.99918
0.99914
0.99911
0.99908
0.99905
0.99902
0.99899
0.99897
0.99894
0.99892
0.9989
0.99888
0.99886
0.99884
0.99883
0.99881
0.9988
0.99879
0.99878
0.99877
0.99877
0.99877
0.99878
0.99879
0.99881
0.99884
0.99889
0.99895
0.99896
0.99895
0.99892
0.99891
0.99884
0.99879
0.99874
0.99859
0.99842
0.99829
0.99809
0.99787
0.99779
0.99761
0.9974
0.99734
0.99727
0.99726
0.99738
0.99749
0.99758
0.99766
0.99772
0.99776
0.99777
0.99778
0.99777
0.99777
0.99776
0.99775
0.99775
0.99775
0.99775
0.99775
0.99775
0.99776
0.99776
0.99776
0.99776
0.99776
0.99775
0.99775
0.99775
0.99775
0.99774
0.99774
0.99774
0.99773
0.99773
0.99773
0.99773
0.99772
0.99772
0.99772
0.99772
0.99771
0.99771
0.99771
0.99771
0.9977
0.9977
0.9977
0.9977
0.9977
0.9977
0.9977
0.9977
0.9977
0.9977
0.9977
0.9977
0.99771
0.99771
0.99771
0.99772
0.99772
0.99773
0.99773
0.99774
0.99775
0.99775
0.99776
0.99777
0.99778
0.99779
0.9978
0.99781
0.99782
0.99782
0.99783
0.99784
0.99785
0.99786
0.99787
0.99788
0.99788
0.99789
0.9979
0.99791
0.99791
0.99792
0.99793
0.99793
0.99794
0.99795
0.99795
0.99796
0.99796
0.99796
0.99797
0.99797
0.99797
0.99797
0.99797
0.99797
0.99797
0.99797
0.99797
0.99796
0.99796
0.99796
0.99795
0.99794
0.99794
0.99793
0.99792
0.99791
0.9979
0.99789
0.99788
0.99786
0.99785
0.99783
0.99781
0.99779
0.99777
0.99775
0.99773
0.9977
0.99768
0.99765
0.99762
0.99759
0.99755
0.99752
0.99748
0.99744
0.99739
0.99735
0.9973
0.99725
0.9972
0.99714
0.99708
0.99702
0.99696
0.9969
0.99684
0.99677
0.99671
0.99664
0.99657
0.9965
0.99643
0.99636
0.99628
0.9962
0.99612
0.99603
0.99594
0.99585
0.99576
0.99567
0.99559
0.99551
0.99544
0.99539
0.99536
0.99534
0.99536
0.99542
0.99554
0.99572
0.99595
0.99621
0.9965
0.9968
0.99715
0.99737
0.99747
0.99756
0.9975
0.99745
0.99754
0.99772
0.99749
0.99687
0.99512
0.9915
0.98359
0.9648
0.92153
0.82391
0.63825
0.34212
0.14489
0.056417
0.022326
0.0090257
0.0047477
0.0035849
0.0036966
0.0044434
0.0052872
0.0058171
0.0060414
0.0060859
0.0060256
0.0059242
0.0058475
0.0057805
0.005728
0.0056721
0.0056121
0.0055264
0.0054516
0.0053931
0.0053465
0.0053102
0.0052687
0.005221
0.0051654
0.0051146
0.005062
0.00498
0.0048747
0.0048377
0.0050983
0.0059705
0.0045248
0.0027614
0.0014931
0.00099226
0.00083869
0.0011255
0.0013155
0.0013433
0.0013065
0.0012665
0.0012402
0.0012232
0.0012098
0.0011978
0.0011867
0.0011762
0.0011663
0.0011568
0.0011476
0.0011386
0.0011298
0.0011212
0.0011127
0.0011044
0.0010963
0.0010883
0.0010804
0.0010727
0.0010651
0.0010577
0.0010504
0.0010432
0.0010361
0.0010292
0.0010224
0.0010158
0.0010093
0.0010029
0.00099673
0.00099069
0.00098481
0.00097911
0.00097359
0.00096824
0.00096309
0.00095813
0.00095336
0.0009488
0.00094444
0.00094029
0.00093635
0.00093261
0.00092908
0.00092576
0.00092264
0.00091972
0.00091699
0.00091446
0.00091211
0.00090994
0.00090794
0.00090611
0.00090444
0.00090291
0.00090153
0.00090028
0.00089917
0.00089817
0.00089729
0.00089651
0.00089583
0.00089525
0.00089474
0.00089433
0.00089403
0.00089385
0.00089366
0.00089291
0.0008911
0.00089069
0.00089743
0.00091555
0.00092293
0.00083427
0.0007537
0.00081387
0.00089079
0.0010736
0.9999
0.99994
0.99996
0.99998
0.99998
0.99997
0.99997
0.99997
0.99997
0.99996
0.99996
0.99995
0.99994
0.99993
0.99992
0.99991
0.9999
0.99988
0.99987
0.99985
0.99984
0.99982
0.9998
0.99978
0.99976
0.99974
0.99972
0.99969
0.99967
0.99964
0.99961
0.99959
0.99956
0.99953
0.9995
0.99946
0.99943
0.9994
0.99936
0.99932
0.99929
0.99925
0.99922
0.99918
0.99914
0.99911
0.99907
0.99903
0.999
0.99897
0.99894
0.9989
0.99888
0.99885
0.99882
0.9988
0.99877
0.99875
0.99873
0.99871
0.9987
0.99869
0.99869
0.99869
0.9987
0.99871
0.99873
0.99875
0.99879
0.99884
0.99885
0.99885
0.99884
0.99876
0.99865
0.99858
0.99853
0.99839
0.99831
0.99814
0.9979
0.99767
0.99759
0.9974
0.99719
0.99715
0.99712
0.99714
0.99728
0.99738
0.99745
0.9975
0.99755
0.99758
0.99761
0.99762
0.99762
0.99762
0.99761
0.9976
0.9976
0.99759
0.99759
0.99759
0.99759
0.99759
0.9976
0.9976
0.99761
0.99761
0.99761
0.99761
0.99761
0.99762
0.99762
0.99762
0.99762
0.99762
0.99761
0.99761
0.99761
0.99761
0.99761
0.99761
0.99761
0.99761
0.99761
0.99761
0.99761
0.99761
0.99761
0.99761
0.9976
0.9976
0.9976
0.9976
0.9976
0.9976
0.9976
0.9976
0.9976
0.9976
0.9976
0.9976
0.9976
0.99761
0.99761
0.99761
0.99761
0.99762
0.99762
0.99763
0.99763
0.99764
0.99764
0.99765
0.99765
0.99766
0.99767
0.99768
0.99768
0.99769
0.9977
0.9977
0.99771
0.99772
0.99773
0.99773
0.99774
0.99775
0.99776
0.99776
0.99777
0.99778
0.99778
0.99779
0.99779
0.9978
0.9978
0.99781
0.99781
0.99782
0.99782
0.99782
0.99783
0.99783
0.99783
0.99783
0.99783
0.99783
0.99782
0.99782
0.99782
0.99782
0.99781
0.99781
0.9978
0.9978
0.99779
0.99778
0.99777
0.99776
0.99775
0.99774
0.99772
0.99771
0.99769
0.99767
0.99765
0.99763
0.99761
0.99758
0.99756
0.99753
0.9975
0.99747
0.99744
0.9974
0.99736
0.99732
0.99727
0.99722
0.99717
0.99711
0.99705
0.99698
0.99692
0.99685
0.99677
0.9967
0.99662
0.99654
0.99646
0.99637
0.99629
0.99621
0.99612
0.99603
0.99594
0.99585
0.99575
0.99565
0.99556
0.99546
0.99537
0.99529
0.99522
0.99516
0.99511
0.99509
0.99509
0.99511
0.99516
0.99523
0.99533
0.99546
0.99562
0.99579
0.99598
0.99617
0.99638
0.99664
0.99695
0.99733
0.99752
0.99764
0.9978
0.99813
0.99823
0.99808
0.99747
0.99603
0.99267
0.98746
0.97713
0.95111
0.89552
0.78677
0.56487
0.19559
0.055919
0.018093
0.0074692
0.0046644
0.0040365
0.0041727
0.0044275
0.0048483
0.0052386
0.0055592
0.0057449
0.0058157
0.0058206
0.0057857
0.0057417
0.0056857
0.0056242
0.0055461
0.0054771
0.0054209
0.0053747
0.0053322
0.0052829
0.0052307
0.0051754
0.0051297
0.0050834
0.005004
0.0049019
0.004871
0.0051283
0.0059838
0.0045043
0.0027173
0.0014445
0.00094316
0.00078763
0.0010567
0.0012503
0.0013002
0.0012867
0.0012616
0.0012415
0.0012246
0.0012086
0.0011935
0.0011797
0.0011675
0.0011565
0.0011465
0.0011369
0.0011277
0.0011188
0.00111
0.0011014
0.0010929
0.0010846
0.0010765
0.0010685
0.0010606
0.0010529
0.0010454
0.0010379
0.0010307
0.0010235
0.0010165
0.0010096
0.0010029
0.00099633
0.00098989
0.00098362
0.0009775
0.00097155
0.00096577
0.00096016
0.00095474
0.0009495
0.00094445
0.00093959
0.00093493
0.00093047
0.00092621
0.00092215
0.0009183
0.00091465
0.0009112
0.00090795
0.00090489
0.00090202
0.00089935
0.00089685
0.00089453
0.00089238
0.00089039
0.00088857
0.00088689
0.00088536
0.00088397
0.00088271
0.00088157
0.00088055
0.00087965
0.00087885
0.00087815
0.00087754
0.00087703
0.00087664
0.00087639
0.00087612
0.00087532
0.00087349
0.00087303
0.00087963
0.00089743
0.00090467
0.00081742
0.00073816
0.0007974
0.00087315
0.0010532
0.99986
0.99992
0.99995
0.99998
0.99997
0.99996
0.99995
0.99994
0.99994
0.99993
0.99992
0.99991
0.9999
0.99989
0.99988
0.99987
0.99986
0.99985
0.99983
0.99982
0.9998
0.99978
0.99976
0.99974
0.99972
0.9997
0.99967
0.99965
0.99962
0.9996
0.99957
0.99954
0.99951
0.99947
0.99944
0.99941
0.99937
0.99933
0.9993
0.99926
0.99922
0.99918
0.99914
0.9991
0.99906
0.99902
0.99898
0.99894
0.9989
0.99886
0.99882
0.99879
0.99875
0.99872
0.99869
0.99866
0.99863
0.99861
0.99859
0.99858
0.99858
0.99859
0.99861
0.99864
0.99867
0.99872
0.99876
0.99876
0.99873
0.9987
0.99861
0.99851
0.99846
0.9983
0.99809
0.9979
0.99779
0.99759
0.9975
0.99736
0.99713
0.99691
0.99688
0.99685
0.99688
0.99704
0.99716
0.99726
0.99732
0.99736
0.99739
0.9974
0.99741
0.99742
0.99742
0.99741
0.99741
0.9974
0.9974
0.99739
0.99739
0.99739
0.99739
0.9974
0.9974
0.99741
0.99741
0.99742
0.99742
0.99743
0.99743
0.99744
0.99744
0.99745
0.99745
0.99745
0.99745
0.99746
0.99746
0.99746
0.99746
0.99746
0.99747
0.99747
0.99747
0.99747
0.99747
0.99747
0.99747
0.99748
0.99748
0.99748
0.99748
0.99748
0.99748
0.99748
0.99747
0.99747
0.99747
0.99747
0.99747
0.99747
0.99747
0.99747
0.99747
0.99747
0.99747
0.99747
0.99747
0.99747
0.99747
0.99748
0.99748
0.99748
0.99748
0.99749
0.99749
0.9975
0.9975
0.99751
0.99751
0.99752
0.99752
0.99753
0.99753
0.99754
0.99754
0.99755
0.99755
0.99756
0.99757
0.99757
0.99758
0.99759
0.99759
0.9976
0.9976
0.99761
0.99761
0.99762
0.99763
0.99763
0.99764
0.99764
0.99764
0.99765
0.99765
0.99765
0.99765
0.99765
0.99765
0.99765
0.99765
0.99765
0.99765
0.99765
0.99764
0.99764
0.99764
0.99763
0.99762
0.99761
0.99761
0.99759
0.99758
0.99757
0.99755
0.99753
0.99752
0.99749
0.99747
0.99745
0.99742
0.9974
0.99737
0.99733
0.9973
0.99726
0.99722
0.99717
0.99712
0.99706
0.997
0.99694
0.99687
0.99679
0.99672
0.99663
0.99655
0.99645
0.99636
0.99626
0.99616
0.99606
0.99595
0.99584
0.99574
0.99563
0.99552