/*--------------------------------*- C++ -*----------------------------------*\
| =========                 |                                                 |
| \\      /  F ield         | OpenFOAM: The Open Source CFD Toolbox           |
|  \\    /   O peration     | Version:  5.x                                   |
|   \\  /    A nd           | Web:      www.OpenFOAM.org                      |
|    \\/     M anipulation  |                                                 |
\*---------------------------------------------------------------------------*/
FoamFile
{
    version     2.0;
    format      ascii;
    class       volSymmTensorField;
    location    "30";
    object      sigmaD;
}
// * * * * * * * * * * * * * * * * * * * * * * * * * * * * * * * * * * * * * //

dimensions      [0 2 -2 0 0 0 0];

internalField   nonuniform List<symmTensor> 
80000
(
(59482 4394.4 0 3215.5 0 14469)
(44950 1809.2 0 210.88 0 10422)
(39916 942.65 0 -75.497 0 9194.1)
(37029 642.97 0 -13.912 0 8541.9)
(34945 509.96 0 25.246 0 8070.2)
(33265 430.35 0 32.919 0 7684.2)
(31837 374.49 0 29.785 0 7354)
(30587 333.01 0 25.102 0 7064.3)
(29467 301.35 0 21.214 0 6804.9)
(28447 276.49 0 18.255 0 6568.9)
(27506 256.35 0 15.936 0 6351.2)
(26630 239.47 0 14.008 0 6148.6)
(25809 224.88 0 12.316 0 5958.7)
(25036 211.9 0 10.775 0 5780.1)
(24308 200.09 0 9.3466 0 5611.6)
(23619 189.17 0 8.0106 0 5452.3)
(22968 178.93 0 6.7625 0 5301.8)
(22352 169.25 0 5.6028 0 5159.4)
(21770 160.03 0 4.5341 0 5024.8)
(21220 151.22 0 3.5587 0 4897.7)
(20701 142.77 0 2.6787 0 4777.7)
(20211 134.66 0 1.8958 0 4664.6)
(19750 126.85 0 1.2109 0 4558.1)
(19317 119.33 0 0.62283 0 4457.9)
(18910 112.08 0 0.12952 0 4363.8)
(18528 105.08 0 -0.27273 0 4275.7)
(18171 98.313 0 -0.58726 0 4193.3)
(17838 91.77 0 -0.81707 0 4116.4)
(17528 85.437 0 -0.96445 0 4044.8)
(17241 79.298 0 -1.0328 0 3978.4)
(16975 73.341 0 -1.0253 0 3917)
(16730 67.555 0 -0.9454 0 3860.4)
(16505 61.929 0 -0.79486 0 3808.6)
(16300 56.452 0 -0.57582 0 3761.4)
(16115 51.116 0 -0.28988 0 3718.7)
(15948 45.915 0 0.060973 0 3680.3)
(15800 40.842 0 0.47543 0 3646.2)
(15669 35.895 0 0.95173 0 3616.2)
(15557 31.076 0 1.4886 0 3590.3)
(15461 26.386 0 2.084 0 3568.4)
(15382 21.835 0 2.7361 0 3550.2)
(15318 17.435 0 3.442 0 3535.8)
(15271 13.204 0 4.1987 0 3525)
(15238 9.1643 0 5.0015 0 3517.6)
(15219 5.3457 0 5.8455 0 3513.4)
(15214 1.7825 0 6.7237 0 3512.4)
(15220 -1.4852 0 7.6284 0 3514.1)
(15238 -4.4134 0 8.55 0 3518.4)
(15266 -6.9547 0 9.478 0 3525)
(15302 -9.0614 0 10.401 0 3533.5)
(15344 -10.687 0 11.305 0 3543.5)
(15391 -11.791 0 12.178 0 3554.6)
(15441 -12.342 0 13.007 0 3566.3)
(15492 -12.32 0 13.779 0 3578.2)
(15541 -11.723 0 14.483 0 3589.6)
(15586 -10.567 0 15.109 0 3600.3)
(15626 -8.8933 0 15.65 0 3609.6)
(15658 -6.7622 0 16.1 0 3617.1)
(15682 -4.2565 0 16.455 0 3622.6)
(15695 -1.4765 0 16.714 0 3625.7)
(15697 1.4651 0 16.878 0 3626.3)
(15688 4.4501 0 16.948 0 3624.2)
(15668 7.3627 0 16.926 0 3619.5)
(15637 10.097 0 16.816 0 3612.4)
(15596 12.563 0 16.622 0 3602.9)
(15546 14.693 0 16.351 0 3591.3)
(15489 16.442 0 16.009 0 3578.1)
(15426 17.792 0 15.605 0 3563.5)
(15359 18.746 0 15.151 0 3548)
(15289 19.324 0 14.656 0 3531.7)
(15218 19.562 0 14.133 0 3515.1)
(15146 19.507 0 13.594 0 3498.4)
(15075 19.207 0 13.051 0 3481.9)
(15006 18.715 0 12.512 0 3465.7)
(14938 18.079 0 11.986 0 3450)
(14873 17.348 0 11.477 0 3435)
(14811 16.565 0 10.991 0 3420.5)
(14752 15.765 0 10.53 0 3406.8)
(14696 14.975 0 10.099 0 3393.8)
(14643 14.215 0 9.6999 0 3381.4)
(14592 13.493 0 9.3331 0 3369.7)
(14545 12.816 0 8.9942 0 3358.5)
(14499 12.189 0 8.6816 0 3347.9)
(14455 11.612 0 8.3938 0 3337.8)
(14414 11.084 0 8.1196 0 3328.1)
(14374 10.603 0 7.8571 0 3318.9)
(14336 10.17 0 7.6192 0 3310.1)
(14299 9.7905 0 7.404 0 3301.6)
(14264 9.4623 0 7.1944 0 3293.4)
(14230 9.155 0 6.9859 0 3285.5)
(14197 8.8932 0 6.77 0 3277.9)
(14166 8.7383 0 6.5133 0 3270.5)
(14136 8.6999 0 6.2464 0 3263.5)
(14104 8.7697 0 6.0383 0 3256.1)
(14072 8.9349 0 5.8296 0 3248.7)
(14040 9.1547 0 5.6003 0 3241.3)
(14006 9.3848 0 5.4431 0 3233.3)
(13970 9.6378 0 5.2664 0 3225.2)
(13937 9.9845 0 5.0182 0 3217.4)
(13899 10.379 0 4.8752 0 3208.5)
(13859 10.718 0 4.8432 0 3199.3)
(13818 10.85 0 4.8082 0 3189.8)
(13777 10.745 0 4.773 0 3180.3)
(13734 10.511 0 4.6416 0 3170.5)
(13698 10.347 0 4.335 0 3162.2)
(13659 10.357 0 4.0343 0 3153)
(13620 10.424 0 3.8054 0 3143.9)
(13580 10.506 0 3.5705 0 3134.7)
(13540 10.603 0 3.3234 0 3125.5)
(13500 10.721 0 3.0707 0 3116.2)
(13460 10.861 0 2.8164 0 3106.7)
(13418 11.017 0 2.5602 0 3097.1)
(13376 11.184 0 2.2992 0 3087.4)
(13334 11.355 0 2.0322 0 3077.5)
(13290 11.524 0 1.7588 0 3067.4)
(13246 11.683 0 1.4797 0 3057.2)
(13202 11.826 0 1.1952 0 3046.9)
(13157 11.946 0 0.90622 0 3036.4)
(13111 12.035 0 0.61289 0 3025.8)
(13065 12.087 0 0.31634 0 3015.1)
(13019 12.097 0 0.01711 0 3004.4)
(12973 12.059 0 -0.2833 0 2993.7)
(12927 11.97 0 -0.58387 0 2983.1)
(12882 11.824 0 -0.88249 0 2972.5)
(12837 11.616 0 -1.1775 0 2962.1)
(12793 11.343 0 -1.466 0 2951.8)
(12750 10.997 0 -1.7456 0 2941.9)
(12708 10.571 0 -2.0128 0 2932.2)
(12668 10.056 0 -2.2642 0 2922.9)
(12630 9.441 0 -2.4956 0 2914.2)
(12595 8.7154 0 -2.7031 0 2905.9)
(12563 7.8677 0 -2.8819 0 2898.4)
(12533 6.8871 0 -3.0278 0 2891.6)
(12508 5.7647 0 -3.136 0 2885.8)
(12487 4.4946 0 -3.2025 0 2880.9)
(12471 3.0754 0 -3.2232 0 2877.2)
(12461 1.511 0 -3.1951 0 2874.8)
(12456 -0.18841 0 -3.115 0 2873.8)
(12459 -2.0059 0 -2.9812 0 2874.4)
(12468 -3.9183 0 -2.7917 0 2876.5)
(12484 -5.897 0 -2.5461 0 2880.3)
(12508 -7.9087 0 -2.2438 0 2885.9)
(12539 -9.9177 0 -1.8859 0 2893.2)
(12578 -11.887 0 -1.473 0 2902.2)
(12624 -13.782 0 -1.0078 0 2912.9)
(12676 -15.568 0 -0.49281 0 2925.2)
(12735 -17.216 0 0.067755 0 2938.9)
(12800 -18.701 0 0.66953 0 2954)
(12870 -20.004 0 1.3065 0 2970.3)
(12945 -21.111 0 1.9728 0 2987.7)
(13023 -22.012 0 2.6611 0 3005.9)
(13104 -22.703 0 3.3644 0 3024.7)
(13187 -23.183 0 4.0748 0 3044.1)
(13271 -23.456 0 4.7849 0 3063.7)
(13356 -23.528 0 5.4865 0 3083.5)
(13441 -23.405 0 6.1722 0 3103.2)
(13525 -23.096 0 6.834 0 3122.7)
(13607 -22.61 0 7.4648 0 3141.8)
(13687 -21.956 0 8.0572 0 3160.5)
(13764 -21.14 0 8.6049 0 3178.4)
(13838 -20.173 0 9.1014 0 3195.5)
(13908 -19.063 0 9.5419 0 3211.8)
(13973 -17.82 0 9.9214 0 3226.9)
(14034 -16.458 0 10.237 0 3240.9)
(14089 -14.993 0 10.486 0 3253.7)
(14138 -13.446 0 10.667 0 3265.1)
(14182 -11.844 0 10.781 0 3275.2)
(14219 -10.217 0 10.831 0 3283.8)
(14250 -8.6029 0 10.82 0 3291)
(14275 -7.0449 0 10.753 0 3296.7)
(14295 -5.5878 0 10.638 0 3301.2)
(14309 -4.277 0 10.482 0 3304.4)
(14318 -3.1543 0 10.292 0 3306.6)
(14324 -2.2541 0 10.076 0 3307.9)
(14327 -1.5996 0 9.8401 0 3308.6)
(14328 -1.1999 0 9.5914 0 3308.8)
(14328 -1.0475 0 9.3352 0 3308.7)
(14329 -1.1187 0 9.0763 0 3308.7)
(14329 -1.3741 0 8.8187 0 3308.8)
(14332 -1.7617 0 8.5658 0 3309.3)
(14336 -2.2215 0 8.3202 0 3310.2)
(14342 -2.6901 0 8.0845 0 3311.5)
(14349 -3.1071 0 7.8609 0 3313.2)
(14359 -3.4204 0 7.6515 0 3315.3)
(14369 -3.5902 0 7.4578 0 3317.6)
(14380 -3.5922 0 7.2805 0 3320.1)
(14390 -3.4179 0 7.1191 0 3322.5)
(14400 -3.0732 0 6.972 0 3324.7)
(14409 -2.5765 0 6.8367 0 3326.6)
(14415 -1.9546 0 6.7099 0 3328.1)
(14419 -1.2387 0 6.5871 0 3328.9)
(14420 -0.46006 0 6.4641 0 3329.2)
(14418 0.35294 0 6.336 0 3328.8)
(14414 1.1777 0 6.199 0 3327.7)
(14406 1.9987 0 6.0493 0 3325.9)
(14396 2.8071 0 5.8846 0 3323.4)
(14382 3.6003 0 5.7028 0 3320.3)
(14366 4.3798 0 5.5036 0 3316.5)
(14347 5.149 0 5.2867 0 3312.1)
(14326 5.9112 0 5.0532 0 3307.1)
(14301 6.667 0 4.8042 0 3301.4)
(14274 7.4128 0 4.5418 0 3295.1)
(14244 8.1397 0 4.2679 0 3288.1)
(14212 8.8333 0 3.9848 0 3280.6)
(14177 9.4733 0 3.6951 0 3272.6)
(14140 10.034 0 3.402 0 3264)
(14102 10.486 0 3.1093 0 3255)
(14062 10.796 0 2.8221 0 3245.7)
(14021 10.926 0 2.5465 0 3236.2)
(13980 10.838 0 2.2907 0 3226.7)
(13940 10.491 0 2.0639 0 3217.4)
(13902 9.8462 0 1.8773 0 3208.5)
(13866 8.8653 0 1.7425 0 3200.3)
(13836 7.5157 0 1.6722 0 3193.2)
(13811 5.7723 0 1.6787 0 3187.5)
(13793 3.6209 0 1.7744 0 3183.4)
(13784 1.0613 0 1.9703 0 3181.4)
(13786 -1.8906 0 2.2768 0 3181.9)
(13799 -5.2014 0 2.7024 0 3185.1)
(13826 -8.8205 0 3.2549 0 3191.3)
(13866 -12.682 0 3.9403 0 3200.9)
(13922 -16.706 0 4.7636 0 3213.9)
(13993 -20.805 0 5.7277 0 3230.4)
(14079 -24.884 0 6.8343 0 3250.6)
(14181 -28.848 0 8.0828 0 3274.3)
(14297 -32.601 0 9.4696 0 3301.4)
(14427 -36.051 0 10.987 0 3331.7)
(14569 -39.108 0 12.625 0 3364.9)
(14721 -41.684 0 14.368 0 3400.6)
(14883 -43.694 0 16.199 0 3438.3)
(15051 -45.059 0 18.098 0 3477.5)
(15223 -45.704 0 20.044 0 3517.7)
(15397 -45.565 0 22.015 0 3558.2)
(15568 -44.589 0 23.99 0 3598.2)
(15735 -42.74 0 25.947 0 3637.1)
(15893 -40.001 0 27.867 0 3674)
(16040 -36.373 0 29.729 0 3708.3)
(16172 -31.878 0 31.516 0 3739.2)
(16286 -26.555 0 33.206 0 3765.9)
(16379 -20.453 0 34.783 0 3787.8)
(16448 -13.63 0 36.225 0 3804.1)
(16492 -6.1444 0 37.513 0 3814.4)
(16507 1.9532 0 38.627 0 3818.1)
(16491 10.625 0 39.543 0 3814.7)
(16443 19.853 0 40.236 0 3803.7)
(16359 29.646 0 40.675 0 3784.6)
(16239 40.038 0 40.824 0 3757)
(16080 51.093 0 40.649 0 3720.2)
(15879 62.896 0 40.123 0 3673.7)
(15633 75.569 0 39.221 0 3616.7)
(15338 89.34 0 37.808 0 3548.2)
(14993 104.7 0 35.724 0 3468.1)
(14588 122.06 0 32.972 0 3374)
(14117 141.58 0 29.834 0 3264.6)
(13560 162.54 0 26.523 0 3135.3)
(12922 184.19 0 22.74 0 2987.3)
(12191 206.17 0 17.592 0 2817.4)
(11386 230.37 0 9.565 0 2629.6)
(10491 260.3 0 -1.8735 0 2420.7)
(9471.5 297.66 0 -15.22 0 2182.2)
(8266.5 339.65 0 -27.442 0 1901.3)
(6859.1 379.72 0 -34.883 0 1574.8)
(5243.8 402.91 0 -33.081 0 1202.5)
(3454.7 373.52 0 -20.168 0 792.59)
(1668.7 238.82 0 -1.2077 0 384.82)
(307.51 43.142 0 6.3767 0 72.436)
(24.78 2.5792 0 0.66605 0 5.8721)
(2.1238 0.17502 0 0.045263 0 0.50054)
(0.21716 0.015958 0 0.0042142 0 0.051086)
(0.034148 0.0023861 0 0.00047786 0 0.0079906)
(0.010556 0.00071005 0 0.00017347 0 0.002476)
(0.0059293 0.00032213 0 0.00011499 0 0.0013948)
(0.004851 0.0001857 0 6.4249e-05 0 0.0011343)
(0.0046619 0.00013014 0 -5.6787e-07 0 0.0010757)
(0.0045172 0.0001373 0 -3.5602e-05 0 0.0010342)
(0.0037557 0.0001506 0 2.428e-05 0 0.00087231)
(0.0028336 0.00011301 0 7.0787e-05 0 0.00067025)
(0.0022512 3.1946e-05 0 8.2527e-05 0 0.00053855)
(0.002341 -6.9103e-05 0 0.00011463 0 0.00056669)
(0.0027049 -0.00024094 0 0.00017833 0 0.00066537)
(0.0049023 -0.00061108 0 0.00025485 0 0.0011901)
(0.0090231 -0.00079297 0 0.00013259 0 0.0021129)
(0.01388 -0.00025978 0 -0.00030176 0 0.0031334)
(0.015251 0.00068615 0 -0.00060411 0 0.0033801)
(0.010795 0.0009463 0 -0.00020614 0 0.0024435)
(0.0078747 0.00077618 0 0.00014156 0 0.0018499)
(0.0053464 0.00048706 0 0.00028255 0 0.001299)
(0.0041846 0.00032598 0 0.00023456 0 0.0010198)
(0.0035222 0.00020849 0 0.0001377 0 0.00084459)
(0.0039096 0.00017844 0 6.1245e-05 0 0.00091635)
(0.0032659 0.0001333 0 -9.6059e-06 0 0.00075144)
(0.002829 0.00010896 0 -1.6594e-05 0 0.00064901)
(0.0025001 9.5831e-05 0 -1.0421e-05 0 0.00057454)
(0.0022191 8.6275e-05 0 -5.501e-06 0 0.00051084)
(0.00196 7.6944e-05 0 -3.1984e-06 0 0.00045156)
(0.0017353 6.8308e-05 0 -2.7805e-06 0 0.00039981)
(0.0015385 6.1029e-05 0 -3.3063e-06 0 0.00035428)
(0.0013582 5.4888e-05 0 -4.0027e-06 0 0.00031252)
(0.0011995 5.0227e-05 0 -4.4238e-06 0 0.00027578)
(0.001048 4.6279e-05 0 -4.5589e-06 0 0.0002408)
(0.00090923 4.2577e-05 0 -4.5786e-06 0 0.00020876)
(0.00078136 3.8899e-05 0 -4.5928e-06 0 0.00017925)
(0.00066464 3.5232e-05 0 -4.5568e-06 0 0.00015233)
(0.00056037 3.1689e-05 0 -4.5099e-06 0 0.00012827)
(0.00046723 2.8183e-05 0 -4.368e-06 0 0.00010682)
(0.00038488 2.4514e-05 0 -4.0644e-06 0 8.788e-05)
(0.00031572 2.0594e-05 0 -3.4545e-06 0 7.2061e-05)
(0.00026032 1.6175e-05 0 -2.4324e-06 0 5.9512e-05)
(0.00022029 1.1064e-05 0 -9.5976e-07 0 5.0614e-05)
(0.00019814 5.6785e-06 0 6.0711e-07 0 4.5864e-05)
(0.00019171 9.1636e-07 0 1.6596e-06 0 4.4624e-05)
(0.00019569 -2.2593e-06 0 1.8432e-06 0 4.5585e-05)
(0.00020633 -3.8303e-06 0 1.0508e-06 0 4.7856e-05)
(0.00024866 -1.1196e-06 0 -3.546e-06 0 5.6565e-05)
(0.00030704 1.091e-05 0 -1.2771e-05 0 6.7908e-05)
(0.00021392 1.5086e-05 0 -5.0427e-06 0 4.8203e-05)
(0.00015521 1.2792e-05 0 2.6005e-06 0 3.6418e-05)
(0.00010535 8.2515e-06 0 3.9201e-06 0 2.5216e-05)
(9.737e-05 5.3242e-06 0 2.702e-06 0 2.3094e-05)
(8.8437e-05 3.1749e-06 0 1.1955e-06 0 2.0684e-05)
(8.6783e-05 2.1984e-06 0 2.4549e-07 0 2.0083e-05)
(7.9057e-05 1.6889e-06 0 -1.4843e-07 0 1.821e-05)
(7.2893e-05 1.3965e-06 0 -1.4139e-07 0 1.6789e-05)
(6.8306e-05 1.1766e-06 0 -1.0854e-07 0 1.5738e-05)
(6.4661e-05 9.9864e-07 0 -1.0733e-07 0 1.4897e-05)
(6.1586e-05 8.5924e-07 0 -1.1695e-07 0 1.4185e-05)
(5.8873e-05 7.5122e-07 0 -1.2315e-07 0 1.3558e-05)
(5.6464e-05 6.6571e-07 0 -1.2448e-07 0 1.3001e-05)
(5.4312e-05 5.9596e-07 0 -1.236e-07 0 1.2505e-05)
(5.2375e-05 5.3776e-07 0 -1.2208e-07 0 1.2058e-05)
(5.0618e-05 4.8859e-07 0 -1.2041e-07 0 1.1653e-05)
(4.9014e-05 4.4682e-07 0 -1.1867e-07 0 1.1284e-05)
(4.754e-05 4.1137e-07 0 -1.1689e-07 0 1.0944e-05)
(4.6175e-05 3.8148e-07 0 -1.151e-07 0 1.0629e-05)
(4.4904e-05 3.5661e-07 0 -1.133e-07 0 1.0336e-05)
(4.3709e-05 3.3633e-07 0 -1.1148e-07 0 1.0061e-05)
(4.2575e-05 3.2027e-07 0 -1.0965e-07 0 9.7997e-06)
(4.1489e-05 3.0809e-07 0 -1.0779e-07 0 9.5495e-06)
(4.0438e-05 2.9941e-07 0 -1.0593e-07 0 9.3075e-06)
(3.9411e-05 2.9387e-07 0 -1.0407e-07 0 9.0709e-06)
(3.8398e-05 2.9109e-07 0 -1.0225e-07 0 8.8375e-06)
(3.7389e-05 2.9072e-07 0 -1.0049e-07 0 8.6051e-06)
(3.6377e-05 2.924e-07 0 -9.883e-08 0 8.3719e-06)
(3.5356e-05 2.9579e-07 0 -9.7297e-08 0 8.1366e-06)
(3.4319e-05 3.0058e-07 0 -9.5916e-08 0 7.8977e-06)
(3.3264e-05 3.0648e-07 0 -9.4699e-08 0 7.6544e-06)
(3.2186e-05 3.1321e-07 0 -9.3665e-08 0 7.4058e-06)
(3.1082e-05 3.2051e-07 0 -9.2815e-08 0 7.1514e-06)
(2.9953e-05 3.2815e-07 0 -9.2159e-08 0 6.8909e-06)
(2.8796e-05 3.359e-07 0 -9.169e-08 0 6.624e-06)
(2.7611e-05 3.4357e-07 0 -9.1411e-08 0 6.3508e-06)
(2.64e-05 3.5096e-07 0 -9.1312e-08 0 6.0713e-06)
(2.5164e-05 3.5791e-07 0 -9.139e-08 0 5.786e-06)
(2.3904e-05 3.6427e-07 0 -9.163e-08 0 5.4953e-06)
(2.2623e-05 3.699e-07 0 -9.2024e-08 0 5.1996e-06)
(2.1324e-05 3.7468e-07 0 -9.2555e-08 0 4.8996e-06)
(2.001e-05 3.7851e-07 0 -9.3211e-08 0 4.5961e-06)
(1.8684e-05 3.813e-07 0 -9.3971e-08 0 4.2899e-06)
(1.7349e-05 3.8297e-07 0 -9.4819e-08 0 3.9818e-06)
(1.6012e-05 3.8345e-07 0 -9.5733e-08 0 3.6729e-06)
(1.4674e-05 3.8269e-07 0 -9.6696e-08 0 3.364e-06)
(1.3342e-05 3.8063e-07 0 -9.7683e-08 0 3.0563e-06)
(1.2018e-05 3.7725e-07 0 -9.8675e-08 0 2.7507e-06)
(1.071e-05 3.725e-07 0 -9.9647e-08 0 2.4485e-06)
(9.4198e-06 3.6637e-07 0 -1.0058e-07 0 2.1506e-06)
(8.154e-06 3.5883e-07 0 -1.0145e-07 0 1.8583e-06)
(6.917e-06 3.4988e-07 0 -1.0223e-07 0 1.5726e-06)
(5.714e-06 3.3952e-07 0 -1.0289e-07 0 1.2949e-06)
(4.5497e-06 3.2775e-07 0 -1.0343e-07 0 1.0261e-06)
(3.4291e-06 3.1459e-07 0 -1.038e-07 0 7.6738e-07)
(2.3572e-06 3.0005e-07 0 -1.0399e-07 0 5.1997e-07)
(1.3386e-06 2.8418e-07 0 -1.0397e-07 0 2.8491e-07)
(3.78e-07 2.67e-07 0 -1.0372e-07 0 6.3296e-08)
(-5.2006e-07 2.4857e-07 0 -1.0322e-07 0 -1.4383e-07)
(-1.3513e-06 2.2896e-07 0 -1.0243e-07 0 -3.3548e-07)
(-2.1117e-06 2.0823e-07 0 -1.0134e-07 0 -5.1069e-07)
(-2.7973e-06 1.8646e-07 0 -9.9932e-08 0 -6.686e-07)
(-3.4048e-06 1.6377e-07 0 -9.8173e-08 0 -8.0838e-07)
(-3.931e-06 1.4027e-07 0 -9.6049e-08 0 -9.2932e-07)
(-4.3733e-06 1.1608e-07 0 -9.3539e-08 0 -1.0308e-06)
(-4.7294e-06 9.1372e-08 0 -9.0627e-08 0 -1.1123e-06)
(-4.9978e-06 6.6313e-08 0 -8.7298e-08 0 -1.1735e-06)
(-5.1775e-06 4.1106e-08 0 -8.3543e-08 0 -1.2141e-06)
(-5.2683e-06 1.5979e-08 0 -7.9352e-08 0 -1.2341e-06)
(-5.2709e-06 -8.8083e-09 0 -7.4728e-08 0 -1.2336e-06)
(-5.1868e-06 -3.296e-08 0 -6.9673e-08 0 -1.213e-06)
(-5.0189e-06 -5.6143e-08 0 -6.4199e-08 0 -1.173e-06)
(-4.7713e-06 -7.7979e-08 0 -5.8321e-08 0 -1.1145e-06)
(-4.4493e-06 -9.8022e-08 0 -5.2095e-08 0 -1.0388e-06)
(-4.0601e-06 -1.1569e-07 0 -4.5656e-08 0 -9.4749e-07)
(-3.612e-06 -1.3022e-07 0 -3.9206e-08 0 -8.4259e-07)
(-3.1182e-06 -1.4095e-07 0 -3.2865e-08 0 -7.2716e-07)
(-2.5956e-06 -1.477e-07 0 -2.6533e-08 0 -6.051e-07)
(-2.0648e-06 -1.5074e-07 0 -2.0113e-08 0 -4.8112e-07)
(-1.5391e-06 -1.4834e-07 0 -1.4705e-08 0 -3.5858e-07)
(-1.0095e-06 -1.3251e-07 0 -1.2048e-08 0 -2.3573e-07)
(-5.7323e-07 -1.0922e-07 0 -1.2483e-08 0 -1.3517e-07)
(-2.4964e-07 -8.2866e-08 0 -1.5864e-08 0 -6.1271e-08)
(-4.4188e-08 -5.023e-08 0 -1.9062e-08 0 -1.4596e-08)
(1.0703e-08 -1.9405e-08 0 -4.8271e-09 0 1.3561e-09)
(40488 10191 0 5977.3 0 10723)
(41541 6720.8 0 1849.2 0 10013)
(39142 4564.4 0 693.44 0 9192.7)
(36660 3312.5 0 418.24 0 8556.6)
(34635 2606.5 0 319.44 0 8066.4)
(32982 2176.6 0 247.81 0 7668.3)
(31580 1887 0 188.94 0 7331.4)
(30353 1677.3 0 144.22 0 7037.8)
(29254 1518.1 0 112.3 0 6776.8)
(28253 1392.8 0 90.175 0 6540.7)
(27331 1290.8 0 74.936 0 6324.6)
(26476 1205.2 0 64.372 0 6124.6)
(25676 1131.1 0 56.934 0 5938.3)
(24925 1065.3 0 51.578 0 5763.7)
(24217 1005.7 0 47.604 0 5599.5)
(23549 950.56 0 44.544 0 5444.7)
(22918 899.04 0 42.092 0 5298.4)
(22321 850.42 0 40.047 0 5160.2)
(21756 804.22 0 38.278 0 5029.4)
(21221 760.11 0 36.698 0 4905.7)
(20716 717.86 0 35.252 0 4788.8)
(20239 677.3 0 33.911 0 4678.4)
(19789 638.3 0 32.657 0 4574.2)
(19364 600.73 0 31.48 0 4475.9)
(18964 564.5 0 30.374 0 4383.4)
(18588 529.54 0 29.331 0 4296.4)
(18236 495.75 0 28.347 0 4214.8)
(17905 463.08 0 27.424 0 4138.3)
(17597 431.44 0 26.561 0 4066.9)
(17309 400.77 0 25.757 0 4000.3)
(17041 371.01 0 25.005 0 3938.4)
(16794 342.11 0 24.302 0 3881.1)
(16565 314 0 23.644 0 3828.2)
(16356 286.64 0 23.027 0 3779.7)
(16164 260 0 22.446 0 3735.3)
(15990 234.02 0 21.892 0 3695.1)
(15833 208.7 0 21.357 0 3658.8)
(15694 184.02 0 20.829 0 3626.4)
(15570 159.97 0 20.294 0 3597.8)
(15463 136.59 0 19.736 0 3572.8)
(15370 113.91 0 19.135 0 3551.4)
(15293 91.992 0 18.471 0 3533.5)
(15230 70.92 0 17.72 0 3518.8)
(15181 50.808 0 16.857 0 3507.3)
(15145 31.796 0 15.856 0 3498.8)
(15122 14.05 0 14.692 0 3493)
(15109 -2.2388 0 13.343 0 3489.9)
(15107 -16.859 0 11.791 0 3489.1)
(15115 -29.584 0 10.026 0 3490.3)
(15130 -40.187 0 8.0479 0 3493.4)
(15151 -48.447 0 5.87 0 3497.8)
(15178 -54.169 0 3.5219 0 3503.4)
(15208 -57.203 0 1.0503 0 3509.7)
(15239 -57.458 0 -1.4799 0 3516.4)
(15270 -54.922 0 -3.9874 0 3523)
(15299 -49.678 0 -6.3781 0 3529.1)
(15325 -41.915 0 -8.5506 0 3534.5)
(15345 -31.927 0 -10.404 0 3538.8)
(15359 -20.109 0 -11.849 0 3541.7)
(15366 -6.9413 0 -12.814 0 3543)
(15364 7.036 0 -13.257 0 3542.5)
(15354 21.257 0 -13.169 0 3540.3)
(15336 35.164 0 -12.578 0 3536.1)
(15309 48.248 0 -11.546 0 3530.2)
(15275 60.079 0 -10.161 0 3522.6)
(15234 70.326 0 -8.5315 0 3513.5)
(15187 78.777 0 -6.7687 0 3503.1)
(15135 85.335 0 -4.9801 0 3491.6)
(15080 90.01 0 -3.2588 0 3479.3)
(15023 92.9 0 -1.678 0 3466.4)
(14964 94.173 0 -0.28901 0 3453.1)
(14904 94.042 0 0.88 0 3439.6)
(14845 92.743 0 1.8208 0 3426.2)
(14787 90.515 0 2.5372 0 3412.9)
(14730 87.593 0 3.0375 0 3399.9)
(14675 84.202 0 3.3364 0 3387.3)
(14622 80.547 0 3.4612 0 3375.1)
(14571 76.798 0 3.4489 0 3363.4)
(14523 73.085 0 3.339 0 3352.2)
(14477 69.495 0 3.1747 0 3341.5)
(14433 66.08 0 2.9857 0 3331.3)
(14391 62.87 0 2.77 0 3321.5)
(14351 59.887 0 2.5378 0 3312.2)
(14312 57.152 0 2.3096 0 3303.4)
(14276 54.679 0 2.0548 0 3294.9)
(14241 52.433 0 1.7814 0 3286.8)
(14208 50.445 0 1.5637 0 3279.1)
(14176 48.782 0 1.3823 0 3271.7)
(14145 47.439 0 1.1151 0 3264.4)
(14114 46.338 0 0.78975 0 3257.4)
(14083 45.522 0 0.50349 0 3250)
(14051 45.047 0 0.1436 0 3242.6)
(14020 44.896 0 -0.21532 0 3235.4)
(13988 45.098 0 -0.33631 0 3228)
(13956 45.638 0 -0.52002 0 3220.5)
(13926 46.463 0 -0.87904 0 3213.6)
(13894 47.446 0 -0.97265 0 3206)
(13860 48.59 0 -0.98052 0 3198.3)
(13828 49.872 0 -1.1263 0 3190.7)
(13793 51.089 0 -0.95631 0 3182.9)
(13759 52.086 0 -0.56879 0 3174.9)
(13727 52.601 0 -0.33243 0 3167.7)
(13694 52.591 0 -0.033401 0 3160.1)
(13659 52.245 0 0.14867 0 3152.1)
(13627 52.033 0 -0.072303 0 3144.6)
(13592 52.209 0 -0.2945 0 3136.6)
(13558 52.55 0 -0.36575 0 3128.6)
(13523 53.004 0 -0.44615 0 3120.5)
(13488 53.559 0 -0.55027 0 3112.4)
(13452 54.211 0 -0.65446 0 3104.2)
(13416 54.949 0 -0.73712 0 3095.8)
(13380 55.754 0 -0.79166 0 3087.4)
(13342 56.6 0 -0.82 0 3078.8)
(13305 57.461 0 -0.82272 0 3070.2)
(13267 58.308 0 -0.79764 0 3061.4)
(13228 59.106 0 -0.74208 0 3052.5)
(13189 59.823 0 -0.65463 0 3043.5)
(13150 60.424 0 -0.53575 0 3034.4)
(13110 60.875 0 -0.38755 0 3025.2)
(13070 61.145 0 -0.21322 0 3016)
(13030 61.208 0 -0.016259 0 3006.8)
(12990 61.039 0 0.20034 0 2997.7)
(12950 60.615 0 0.43476 0 2988.5)
(12910 59.915 0 0.68703 0 2979.5)
(12871 58.917 0 0.95912 0 2970.6)
(12833 57.595 0 1.255 0 2961.8)
(12796 55.918 0 1.5803 0 2953.3)
(12760 53.851 0 1.9415 0 2945.1)
(12726 51.349 0 2.3451 0 2937.3)
(12693 48.364 0 2.7969 0 2929.9)
(12663 44.843 0 3.3001 0 2922.9)
(12635 40.732 0 3.8548 0 2916.6)
(12609 35.979 0 4.4562 0 2910.9)
(12587 30.543 0 5.094 0 2906)
(12569 24.397 0 5.7518 0 2901.9)
(12555 17.533 0 6.4075 0 2898.8)
(12545 9.9703 0 7.0346 0 2896.7)
(12541 1.759 0 7.6036 0 2895.8)
(12541 -7.0207 0 8.0847 0 2896)
(12548 -16.258 0 8.4504 0 2897.6)
(12560 -25.816 0 8.6777 0 2900.5)
(12578 -35.536 0 8.7506 0 2904.7)
(12603 -45.248 0 8.661 0 2910.3)
(12633 -54.776 0 8.4093 0 2917.3)
(12670 -63.949 0 8.0036 0 2925.6)
(12712 -72.608 0 7.4588 0 2935.2)
(12759 -80.613 0 6.7946 0 2945.9)
(12811 -87.845 0 6.0338 0 2957.8)
(12868 -94.209 0 5.2003 0 2970.6)
(12928 -99.637 0 4.3177 0 2984.3)
(12991 -104.08 0 3.4078 0 2998.8)
(13057 -107.53 0 2.4903 0 3013.8)
(13125 -109.97 0 1.5816 0 3029.3)
(13195 -111.42 0 0.6947 0 3045.1)
(13265 -111.91 0 -0.1612 0 3061.1)
(13335 -111.46 0 -0.98077 0 3077.2)
(13405 -110.12 0 -1.7621 0 3093.2)
(13475 -107.93 0 -2.5057 0 3108.9)
(13542 -104.93 0 -3.2132 0 3124.4)
(13608 -101.15 0 -3.8859 0 3139.4)
(13671 -96.647 0 -4.5231 0 3153.9)
(13732 -91.452 0 -5.1209 0 3167.7)
(13789 -85.62 0 -5.6713 0 3180.7)
(13842 -79.212 0 -6.1618 0 3193)
(13892 -72.307 0 -6.5751 0 3204.3)
(13937 -65.005 0 -6.8895 0 3214.7)
(13978 -57.428 0 -7.0797 0 3224)
(14014 -49.729 0 -7.1184 0 3232.4)
(14046 -42.084 0 -6.9802 0 3239.7)
(14073 -34.693 0 -6.6449 0 3246)
(14095 -27.772 0 -6.103 0 3251.4)
(14114 -21.534 0 -5.3599 0 3255.8)
(14129 -16.18 0 -4.4387 0 3259.5)
(14141 -11.872 0 -3.381 0 3262.6)
(14151 -8.7209 0 -2.2451 0 3265.1)
(14159 -6.7708 0 -1.1017 0 3267.2)
(14166 -5.9879 0 -0.027642 0 3269.1)
(14173 -6.2597 0 0.90221 0 3270.9)
(14180 -7.4004 0 1.6224 0 3272.8)
(14188 -9.1646 0 2.0839 0 3274.7)
(14197 -11.267 0 2.2598 0 3276.8)
(14207 -13.41 0 2.1499 0 3279.1)
(14218 -15.305 0 1.7802 0 3281.5)
(14230 -16.706 0 1.2002 0 3284.1)
(14242 -17.424 0 0.47598 0 3286.8)
(14255 -17.343 0 -0.31929 0 3289.5)
(14267 -16.421 0 -1.1137 0 3292.1)
(14278 -14.687 0 -1.8446 0 3294.4)
(14287 -12.229 0 -2.4645 0 3296.5)
(14295 -9.1732 0 -2.9449 0 3298.1)
(14300 -5.6674 0 -3.2773 0 3299.3)
(14304 -1.8608 0 -3.4708 0 3300)
(14304 2.1124 0 -3.5482 0 3300.2)
(14302 6.1449 0 -3.5407 0 3299.7)
(14298 10.162 0 -3.4825 0 3298.7)
(14291 14.121 0 -3.4048 0 3297)
(14281 18.009 0 -3.3317 0 3294.8)
(14268 21.832 0 -3.2777 0 3292)
(14254 25.605 0 -3.246 0 3288.6)
(14236 29.34 0 -3.2294 0 3284.6)
(14217 33.039 0 -3.2117 0 3280)
(14194 36.683 0 -3.1704 0 3274.9)
(14170 40.227 0 -3.0797 0 3269.3)
(14143 43.601 0 -2.9134 0 3263.2)
(14115 46.706 0 -2.6468 0 3256.6)
(14084 49.421 0 -2.2585 0 3249.6)
(14052 51.601 0 -1.7306 0 3242.3)
(14018 53.086 0 -1.0481 0 3234.7)
(13984 53.701 0 -0.19936 0 3227.1)
(13950 53.261 0 0.82417 0 3219.5)
(13917 51.577 0 2.0262 0 3212)
(13885 48.46 0 3.4034 0 3205)
(13856 43.732 0 4.9424 0 3198.6)
(13830 37.239 0 6.6173 0 3193)
(13808 28.862 0 8.3876 0 3188.5)
(13793 18.537 0 10.199 0 3185.3)
(13784 6.2626 0 11.982 0 3183.8)
(13784 -7.8829 0 13.662 0 3184.1)
(13793 -23.74 0 15.157 0 3186.5)
(13812 -41.065 0 16.392 0 3191.2)
(13842 -59.539 0 17.302 0 3198.3)
(13884 -78.784 0 17.837 0 3208)
(13937 -98.373 0 17.967 0 3220.4)
(14003 -117.86 0 17.677 0 3235.5)
(14080 -136.77 0 16.971 0 3253.1)
(14168 -154.66 0 15.856 0 3273.3)
(14267 -171.08 0 14.347 0 3295.7)
(14375 -185.6 0 12.455 0 3320.3)
(14492 -197.78 0 10.191 0 3346.5)
(14614 -207.23 0 7.5674 0 3374.2)
(14741 -213.54 0 4.605 0 3402.9)
(14871 -216.37 0 1.334 0 3432.1)
(15001 -215.4 0 -2.1997 0 3461.2)
(15128 -210.37 0 -5.9329 0 3489.8)
(15251 -201.1 0 -9.7873 0 3517.2)
(15366 -187.52 0 -13.675 0 3542.8)
(15470 -169.62 0 -17.504 0 3566.1)
(15562 -147.51 0 -21.193 0 3586.3)
(15638 -121.36 0 -24.672 0 3603)
(15695 -91.432 0 -27.897 0 3615.6)
(15732 -57.985 0 -30.849 0 3623.4)
(15747 -21.303 0 -33.543 0 3626.1)
(15736 18.367 0 -36.022 0 3623.1)
(15699 60.838 0 -38.36 0 3614)
(15634 106.01 0 -40.659 0 3598.4)
(15538 153.9 0 -43.043 0 3575.8)
(15410 204.64 0 -45.647 0 3545.7)
(15249 258.53 0 -48.593 0 3507.8)
(15052 315.98 0 -51.964 0 3461.5)
(14816 377.58 0 -55.844 0 3406.2)
(14539 444.16 0 -60.551 0 3341.3)
(14221 517.08 0 -66.498 0 3266.4)
(13857 597.47 0 -73.555 0 3180.8)
(13445 685.86 0 -80.948 0 3084)
(12977 781.48 0 -87.944 0 2974.3)
(12446 883.04 0 -95.026 0 2850.3)
(11843 990.29 0 -103.63 0 2709.1)
(11168 1106.7 0 -115.16 0 2550.7)
(10412 1237.4 0 -128.16 0 2373.3)
(9604.6 1387.6 0 -136.72 0 2184.9)
(8727.7 1548.3 0 -130.61 0 1983.9)
(7842 1715.8 0 -97.782 0 1787.1)
(6946.7 1869.8 0 -20.357 0 1598.4)
(6055.1 1975.4 0 112.37 0 1423.3)
(4988.3 1915.4 0 265.05 0 1212.3)
(3551.2 1515.6 0 336.31 0 897.12)
(1575.8 613.49 0 187.66 0 406.95)
(168.06 52.107 0 19.995 0 43.397)
(10.922 2.6288 0 0.80091 0 2.7053)
(0.84615 0.18413 0 0.039837 0 0.20446)
(0.1049 0.021454 0 0.0044572 0 0.025235)
(0.021234 0.0041498 0 0.00068881 0 0.005059)
(0.0071896 0.001313 0 0.00013832 0 0.001691)
(0.0037946 0.00063899 0 5.2761e-05 0 0.00088784)
(0.0025976 0.00040589 0 5.8684e-05 0 0.000613)
(0.0022345 0.00030021 0 0.00017179 0 0.00055531)
(0.0021378 0.00025321 0 0.00024676 0 0.00055028)
(0.0021953 0.0001295 0 0.00027459 0 0.00056996)
(0.0025034 -0.00019868 0 0.00039172 0 0.0006681)
(0.0036291 -0.0011926 0 0.00084499 0 0.0010325)
(0.0057589 -0.0024362 0 0.00086766 0 0.0015292)
(0.0075207 -0.0021834 0 -0.0011131 0 0.0014787)
(0.0059 0.00035443 0 -0.0035738 0 0.00053682)
(0.0031816 0.0021391 0 -0.0030755 0 2.4486e-05)
(0.0024398 0.0018854 0 -0.00078659 0 0.00038151)
(0.0028934 0.0014126 0 0.00044391 0 0.00077015)
(0.0027725 0.0010131 0 0.00076667 0 0.00081672)
(0.0027823 0.00083238 0 0.0006842 0 0.00079995)
(0.0027431 0.00067395 0 0.00047341 0 0.00074228)
(0.0029511 0.00064734 0 0.00027277 0 0.00074397)
(0.0024992 0.00052664 0 8.0597e-05 0 0.00059534)
(0.0021455 0.0004327 0 2.9942e-05 0 0.00050203)
(0.0018752 0.00037088 0 2.7364e-05 0 0.00043906)
(0.0016615 0.00032698 0 3.1503e-05 0 0.0003907)
(0.0014787 0.00029069 0 3.1925e-05 0 0.0003486)
(0.001321 0.00026007 0 2.8449e-05 0 0.00031142)
(0.00118 0.00023425 0 2.3202e-05 0 0.00027767)
(0.0010532 0.00021269 0 1.8872e-05 0 0.00024739)
(0.00093356 0.00019365 0 1.6685e-05 0 0.00021929)
(0.00082509 0.00017694 0 1.5781e-05 0 0.00019405)
(0.00072726 0.00016177 0 1.5187e-05 0 0.00017133)
(0.00063793 0.00014744 0 1.457e-05 0 0.00015058)
(0.00055652 0.00013375 0 1.4006e-05 0 0.00013166)
(0.00048402 0.00012097 0 1.3655e-05 0 0.00011485)
(0.00041808 0.00010829 0 1.3809e-05 0 9.9666e-05)
(0.00035948 9.5319e-05 0 1.4762e-05 0 8.6365e-05)
(0.00030714 8.1097e-05 0 1.6745e-05 0 7.4743e-05)
(0.00026235 6.5218e-05 0 1.9747e-05 0 6.51e-05)
(0.00022396 4.7164e-05 0 2.2881e-05 0 5.6964e-05)
(0.00019271 2.8539e-05 0 2.3991e-05 0 5.0009e-05)
(0.00016666 1.2399e-05 0 2.0045e-05 0 4.3085e-05)
(0.00014521 2.4899e-06 0 9.5569e-06 0 3.5715e-05)
(0.00013491 5.4053e-07 0 -7.3326e-06 0 2.944e-05)
(0.00011559 1.2078e-05 0 -3.0627e-05 0 1.9607e-05)
(9.1859e-05 2.904e-05 0 -3.7545e-05 0 1.2534e-05)
(7.5149e-05 2.5468e-05 0 -7.3841e-06 0 1.5638e-05)
(7.5959e-05 2.1475e-05 0 9.313e-06 0 1.9678e-05)
(7.6127e-05 1.9167e-05 0 1.1991e-05 0 2.0335e-05)
(8.2994e-05 1.6285e-05 0 9.4998e-06 0 2.1345e-05)
(8.0124e-05 1.2284e-05 0 5.3284e-06 0 1.972e-05)
(7.7425e-05 9.6889e-06 0 2.5895e-06 0 1.8465e-05)
(7.1154e-05 7.6859e-06 0 1.2253e-06 0 1.6703e-05)
(6.6126e-05 6.2597e-06 0 8.7137e-07 0 1.5461e-05)
(6.2341e-05 5.2387e-06 0 7.3121e-07 0 1.4555e-05)
(5.9266e-05 4.4726e-06 0 5.9539e-07 0 1.3814e-05)
(5.6617e-05 3.8792e-06 0 4.6919e-07 0 1.3174e-05)
(5.4265e-05 3.4089e-06 0 3.7259e-07 0 1.2609e-05)
(5.2174e-05 3.0293e-06 0 3.0483e-07 0 1.211e-05)
(5.0307e-05 2.7175e-06 0 2.5601e-07 0 1.1668e-05)
(4.8627e-05 2.4572e-06 0 2.1852e-07 0 1.1272e-05)
(4.7104e-05 2.2377e-06 0 1.8808e-07 0 1.0913e-05)
(4.5711e-05 2.0515e-06 0 1.6225e-07 0 1.0586e-05)
(4.4429e-05 1.8936e-06 0 1.3951e-07 0 1.0285e-05)
(4.324e-05 1.7607e-06 0 1.1887e-07 0 1.0006e-05)
(4.2129e-05 1.6503e-06 0 9.9792e-08 0 9.745e-06)
(4.108e-05 1.5605e-06 0 8.203e-08 0 9.499e-06)
(4.0083e-05 1.4896e-06 0 6.5549e-08 0 9.265e-06)
(3.9125e-05 1.4361e-06 0 5.041e-08 0 9.0404e-06)
(3.8195e-05 1.3983e-06 0 3.6695e-08 0 8.8228e-06)
(3.7285e-05 1.3747e-06 0 2.4458e-08 0 8.6099e-06)
(3.6386e-05 1.3635e-06 0 1.3713e-08 0 8.3999e-06)
(3.549e-05 1.3632e-06 0 4.4298e-09 0 8.1911e-06)
(3.4592e-05 1.3723e-06 0 -3.4512e-09 0 7.9819e-06)
(3.3685e-05 1.3892e-06 0 -1.0004e-08 0 7.7711e-06)
(3.2765e-05 1.4125e-06 0 -1.5309e-08 0 7.5576e-06)
(3.1828e-05 1.441e-06 0 -1.9441e-08 0 7.3406e-06)
(3.0872e-05 1.4734e-06 0 -2.2474e-08 0 7.1192e-06)
(2.9894e-05 1.5084e-06 0 -2.4475e-08 0 6.893e-06)
(2.8893e-05 1.5452e-06 0 -2.5511e-08 0 6.6617e-06)
(2.7867e-05 1.5825e-06 0 -2.5652e-08 0 6.4249e-06)
(2.6817e-05 1.6195e-06 0 -2.4966e-08 0 6.1828e-06)
(2.5743e-05 1.6553e-06 0 -2.3525e-08 0 5.9353e-06)
(2.4646e-05 1.6891e-06 0 -2.1401e-08 0 5.6827e-06)
(2.3528e-05 1.7202e-06 0 -1.8665e-08 0 5.4252e-06)
(2.239e-05 1.7479e-06 0 -1.5386e-08 0 5.1633e-06)
(2.1234e-05 1.7717e-06 0 -1.1628e-08 0 4.8975e-06)
(2.0064e-05 1.7911e-06 0 -7.4495e-09 0 4.6284e-06)
(1.8882e-05 1.8055e-06 0 -2.9066e-09 0 4.3567e-06)
(1.7692e-05 1.8148e-06 0 1.9513e-09 0 4.0832e-06)
(1.6496e-05 1.8184e-06 0 7.0785e-09 0 3.8085e-06)