/*--------------------------------*- C++ -*----------------------------------*\
| =========                 |                                                 |
| \\      /  F ield         | OpenFOAM: The Open Source CFD Toolbox           |
|  \\    /   O peration     | Version:  5.x                                   |
|   \\  /    A nd           | Web:      www.OpenFOAM.org                      |
|    \\/     M anipulation  |                                                 |
\*---------------------------------------------------------------------------*/
FoamFile
{
    version     2.0;
    format      ascii;
    class       volScalarField;
    location    "150";
    object      gamma;
}
// * * * * * * * * * * * * * * * * * * * * * * * * * * * * * * * * * * * * * //

dimensions      [0 0 0 0 0 0 0];

internalField   nonuniform List<scalar> 
86400
(
7.356e-07
9.186e-07
1.453e-06
2.795e-06
6.243e-06
1.012e-05
1.199e-05
1.339e-05
1.518e-05
1.408e-05
1.905e-05
2.117e-05
2.147e-05
1.483e-05
1.115e-05
1.184e-05
2.977e-05
8.965e-05
0.0001982
0.0003092
0.0004301
0.0006263
0.001276
0.001717
0.001763
0.002211
0.002015
0.001946
0.001808
0.001623
0.001385
0.001289
0.001323
0.001501
0.002002
0.003274
0.004558
0.005433
0.0046
0.004333
0.003648
0.003708
0.003365
0.002474
0.002217
0.0026
0.003821
0.005175
0.006835
0.00631
0.006254
0.006559
0.007086
0.008018
0.008947
0.01095
0.01347
0.01429
0.01336
0.01198
0.009636
0.00945
0.009256
0.01008
0.01287
0.01735
0.01876
0.01899
0.01496
0.01347
0.01601
0.0226
0.02622
0.02414
0.0218
0.02021
0.01831
0.02068
0.02434
0.02315
0.02169
0.01851
0.01697
0.01876
0.02468
0.02754
0.02907
0.02649
0.02648
0.026
0.02179
0.02239
0.02441
0.03207
0.03651
0.03903
0.03246
0.03011
0.02896
0.02722
0.02473
0.01884
0.01404
0.009329
0.0063
0.006285
0.008917
0.01289
0.01045
0.006272
0.003073
0.001999
0.001983
0.002338
0.002343
0.002165
0.002006
0.001893
0.001893
0.001915
0.001902
0.001836
0.001668
0.001449
0.001309
0.001258
0.001185
0.001142
0.001107
0.00104
0.0009282
0.001048
0.000967
0.000714
0.0005394
0.0004324
0.0004558
0.0006342
0.0003879
0.000128
4.454e-05
2.136e-05
1.887e-05
1.334e-05
3.846e-06
7.59e-07
2.003e-07
4.815e-08
2.555e-08
3.705e-08
6.376e-08
4.156e-07
5.155e-06
3.96e-05
0.0001722
0.0005157
0.0006625
0.001286
0.1274
0.9974
9.47e-07
1.01e-06
1.445e-06
2.457e-06
5.653e-06
9.228e-06
1.054e-05
1.014e-05
8.286e-06
6.455e-06
8.667e-06
1.172e-05
1.768e-05
2.119e-05
1.824e-05
1.452e-05
3.064e-05
8.91e-05
0.0002365
0.0006379
0.001059
0.001407
0.002141
0.00283
0.002996
0.00319
0.003089
0.003082
0.003205
0.002668
0.002305
0.002179
0.002354
0.002809
0.003939
0.006425
0.009614
0.01272
0.01225
0.01181
0.009643
0.008805
0.008056
0.006139
0.004681
0.004772
0.005657
0.007066
0.009673
0.01056
0.0114
0.01303
0.01544
0.01776
0.01532
0.01256
0.01033
0.00831
0.006824
0.006768
0.005971
0.005779
0.005293
0.005217
0.005884
0.008903
0.0109
0.01288
0.01189
0.0126
0.01607
0.02145
0.0182
0.01354
0.009657
0.009915
0.01355
0.02186
0.02899
0.02818
0.02449
0.02047
0.02127
0.02483
0.03502
0.04149
0.04689
0.04418
0.04694
0.05101
0.0499
0.05378
0.05571
0.05442
0.04919
0.04216
0.03179
0.02717
0.02492
0.0225
0.02246
0.02313
0.02542
0.02314
0.01604
0.01294
0.01469
0.01823
0.01724
0.0122
0.005801
0.003457
0.002578
0.002329
0.002061
0.002076
0.002599
0.003788
0.005291
0.006085
0.00646
0.006502
0.006094
0.005378
0.004909
0.00479
0.004467
0.004222
0.004018
0.003771
0.003458
0.003324
0.002508
0.001785
0.001397
0.001019
0.0008928
0.0008652
0.0004715
0.0001425
5.971e-05
2.369e-05
1.328e-05
8.109e-06
3.171e-06
1.344e-06
7.244e-07
4.624e-07
6.964e-07
1.335e-06
2.925e-06
1.229e-05
6.504e-05
0.0003099
0.001811
0.01076
0.04534
0.4272
0.8844
0.998
1.462e-06
1.422e-06
1.841e-06
2.659e-06
5.618e-06
8.432e-06
8.756e-06
7.497e-06
5.002e-06
4.393e-06
6.301e-06
1.215e-05
2.091e-05
3.385e-05
2.875e-05
2.711e-05
6.457e-05
0.0001988
0.000405
0.0009955
0.001214
0.001448
0.002191
0.003165
0.003004
0.003637
0.004211
0.005173
0.006637
0.006259
0.005253
0.005585
0.005697
0.00561
0.005779
0.006732
0.008291
0.01014
0.008297
0.007518
0.006159
0.0064
0.006499
0.006423
0.005397
0.005894
0.007802
0.01024
0.01421
0.017
0.01499
0.01204
0.009913
0.008698
0.00652
0.006098
0.005238
0.0041
0.003261
0.003328
0.003315
0.00358
0.003817
0.004609
0.004768
0.005834
0.006794
0.008168
0.007976
0.00962
0.01174
0.01188
0.008049
0.006588
0.006245
0.01007
0.0201
0.03645
0.04683
0.04825
0.04137
0.03229
0.03272
0.03748
0.05597
0.06551
0.07447
0.073
0.06415
0.05233
0.03869
0.02997
0.02302
0.02404
0.02456
0.02473
0.02371
0.02378
0.02129
0.01977
0.02192
0.02712
0.03607
0.03739
0.03022
0.02541
0.02352
0.02697
0.02671
0.0201
0.01217
0.00905
0.006032
0.004876
0.004219
0.004581
0.0054
0.006829
0.007662
0.006926
0.006526
0.006957
0.006713
0.006052
0.005598
0.005438
0.005007
0.004636
0.004255
0.004115
0.004075
0.003682
0.002303
0.001223
0.0008006
0.000586
0.0006493
0.0007674
0.0005522
0.000229
9.842e-05
4.632e-05
3.498e-05
2.563e-05
1.46e-05
7.742e-06
4.987e-06
5.056e-06
1.254e-05
3.078e-05
6.179e-05
0.0001666
0.0007114
0.003537
0.02165
0.1559
0.7089
0.9602
0.9961
0.9999
2.363e-06
2.24e-06
2.405e-06
2.801e-06
4.917e-06
6.266e-06
5.398e-06
4.066e-06
2.824e-06
3.345e-06
4.502e-06
5.436e-06
5.784e-06
1.342e-05
1.675e-05
2.719e-05
6.774e-05
0.0001189
0.0001259
0.000174
0.0001671
0.0001415
0.0002827
0.0005175
0.0005198
0.0007929
0.001293
0.002019
0.003498
0.004484
0.003892
0.005126
0.006123
0.006613
0.006547
0.00673
0.00714
0.008486
0.006199
0.005756
0.005552
0.006972
0.009968
0.01295
0.008745
0.006706
0.005134
0.004742
0.005517
0.0073
0.005799
0.004136
0.003611
0.003379
0.002597
0.002514
0.002014
0.001579
0.001471
0.001884
0.002224
0.00287
0.003536
0.003979
0.003816
0.004455
0.004708
0.005248
0.005329
0.007799
0.01154
0.01147
0.008532
0.007896
0.006653
0.0117
0.0234
0.03635
0.03622
0.03764
0.03117
0.02558
0.02543
0.02626
0.03018
0.03155
0.03364
0.03276
0.03212
0.03394
0.0362
0.03674
0.03015
0.03115
0.02968
0.02866
0.02867
0.03047
0.02722
0.02764
0.02862
0.03049
0.04305
0.04626
0.03456
0.02718
0.01953
0.01997
0.02074
0.02022
0.01288
0.01083
0.006755
0.005071
0.004276
0.00546
0.007892
0.01145
0.0131
0.01146
0.01009
0.0112
0.01112
0.01028
0.009672
0.009423
0.008702
0.008076
0.007741
0.007759
0.008104
0.007198
0.004231
0.002157
0.00124
0.0006323
0.0004795
0.0003697
0.0002858
0.0001944
0.0001068
5.42e-05
4.452e-05
3.94e-05
3.824e-05
3.719e-05
4.662e-05
7.843e-05
0.0003
0.0009672
0.002843
0.006907
0.02068
0.08165
0.4836
0.8845
0.9867
0.9994
1
1
4.59e-06
4.933e-06
4.781e-06
4.986e-06
6.17e-06
5.47e-06
3.092e-06
2.492e-06
2.198e-06
3.357e-06
3.809e-06
2.52e-06
1.373e-06
3.375e-06
5.888e-06
2.321e-05
0.0001069
9.071e-05
3.245e-05
2.868e-05
3.003e-05
2.7e-05
8.138e-05
0.0001421
0.0001508
0.0003362
0.0009493
0.002805
0.00642
0.007238
0.003481
0.002876
0.002452
0.002369
0.002428
0.002341
0.001969
0.002669
0.002821
0.0041
0.004177
0.004241
0.002828
0.002067
0.0009858
0.0007093
0.0004695
0.0004941
0.0008015
0.001805
0.002181
0.002267
0.002029
0.002135
0.001867
0.001976
0.001747
0.001477
0.001841
0.003021
0.004528
0.006688
0.009521
0.01074
0.007869
0.005748
0.004736
0.004149
0.003736
0.005102
0.007513
0.006605
0.006345
0.007545
0.008596
0.01288
0.02249
0.02417
0.02044
0.02281
0.01929
0.01562
0.01603
0.01833
0.02325
0.02839
0.03078
0.02676
0.02289
0.0224
0.02209
0.02776
0.02734
0.03069
0.02761
0.0288
0.02227
0.02236
0.0217
0.01978
0.0139
0.008139
0.006963
0.007626
0.008514
0.0138
0.01589
0.01483
0.01458
0.02061
0.01574
0.01564
0.01095
0.008815
0.006802
0.006488
0.005892
0.005771
0.004581
0.00414
0.003594
0.003973
0.00396
0.003803
0.003729
0.003753
0.003628
0.003527
0.003561
0.003759
0.004076
0.003381
0.001842
0.0009399
0.0003877
0.0001655
0.0001171
0.0001253
0.0001126
0.0001021
7.784e-05
6.467e-05
8.097e-05
0.000113
0.0001999
0.0003398
0.0006203
0.001431
0.006109
0.01665
0.04455
0.1109
0.3554
0.7944
0.9604
0.9959
0.9997
1
1
1
6.613e-06
9.025e-06
8.675e-06
9.013e-06
6.733e-06
4.279e-06
1.97e-06
1.823e-06
2.408e-06
5.528e-06
6.551e-06
2.367e-06
7.22e-07
1.249e-06
5.249e-06
2.906e-05
0.0001159
6.512e-05
2.014e-05
2.164e-05
4.002e-05
4.952e-05
0.0001703
9.489e-05
4.335e-05
4.823e-05
0.0001161
0.0004037
0.00176
0.001898
0.0007574
0.0005179
0.0004362
0.0004674
0.0007695
0.0009038
0.0005926
0.0006395
0.0007044
0.0007027
0.0004173
0.0002712
9.374e-05
4.33e-05
1.939e-05
7.568e-06
1.661e-06
1.419e-06
2.639e-06
9.583e-06
2.039e-05
4.838e-05
9.56e-05
0.0001608
0.0002038
0.0001958
0.0001509
0.0001764
0.0005547
0.001907
0.004918
0.007156
0.006275
0.005327
0.003528
0.002516
0.003701
0.004898
0.004948
0.007074
0.01088
0.008556
0.007995
0.008421
0.007069
0.00705
0.006252
0.00543
0.005093
0.007726
0.01047
0.01667
0.02291
0.03032
0.03772
0.04142
0.03666
0.02833
0.02464
0.0288
0.03063
0.02363
0.01141
0.005429
0.002085
0.001345
0.0007749
0.0008617
0.0009548
0.001493
0.001712
0.001539
0.001343
0.001345
0.001352
0.002413
0.002902
0.004058
0.005582
0.005973
0.003957
0.003906
0.003282
0.003311
0.002847
0.002599
0.002215
0.002062
0.001757
0.001684
0.001425
0.001445
0.001379
0.001336
0.001317
0.001304
0.001293
0.001292
0.001318
0.001385
0.001471
0.001321
0.0009349
0.0006917
0.0003754
0.0001819
0.000108
9.823e-05
0.0001036
0.0001343
0.0001488
0.0001626
0.0002527
0.0005139
0.001481
0.003803
0.008789
0.02159
0.06323
0.1753
0.5351
0.8081
0.9442
0.992
0.9992
1
1
1
1
1
7.508e-06
1.296e-05
1.137e-05
1.009e-05
6.088e-06
3.614e-06
1.652e-06
2.478e-06
6.74e-06
2.032e-05
2.083e-05
5.659e-06
7.575e-07
8.283e-07
2.002e-06
1.668e-05
0.0001126
0.000148
7.817e-05
0.0001236
0.0003178
0.0003773
0.0008293
0.00017
4.294e-05
2.624e-05
4.738e-05
0.0001317
0.0007588
0.0008553
0.0003478
0.0001674
0.000157
0.0002261
0.0004323
0.0004611
0.0002051
0.0001648
0.0002449
0.0002527
9.869e-05
3.093e-05
4.233e-06
9.598e-07
3.829e-07
6.925e-08
8.232e-09
5.607e-09
1.106e-08
6.477e-08
2.264e-07
7.452e-07
2.099e-06
5.251e-06
8.724e-06
9.284e-06
8.967e-06
1.691e-05
0.0001252
0.0007189
0.003251
0.006257
0.005663
0.005956
0.006115
0.004625
0.008169
0.01162
0.01109
0.01068
0.01512
0.007539
0.004725
0.003941
0.003515
0.004228
0.003405
0.002407
0.001429
0.001481
0.002056
0.005134
0.009385
0.01109
0.01434
0.01655
0.01756
0.01961
0.03218
0.05886
0.05425
0.04108
0.01721
0.005703
0.001288
0.0006298
0.0002574
0.0002579
0.0002288
0.0004839
0.0006878
0.0006702
0.0006683
0.0004425
0.0002598
0.0002492
0.0002587
0.000277
0.0006584
0.0009151
0.00107
0.001489
0.001626
0.001977
0.002017
0.00187
0.001336
0.00111
0.0008796
0.0009531
0.0009173
0.0009223
0.0008629
0.0007713
0.000711
0.0006674
0.0006369
0.0006139
0.0006068
0.0006135
0.0006463
0.0007008
0.0006964
0.0007171
0.0005386
0.000392
0.0003854
0.0005245
0.0007846
0.001533
0.00268
0.004357
0.008146
0.01779
0.04065
0.08714
0.2071
0.4911
0.7604
0.9147
0.9761
0.9952
0.9993
0.9999
1
1
1
1
1
1
1.157e-05
1.91e-05
1.292e-05
1.011e-05
6.567e-06
4.289e-06
2.813e-06
7.788e-06
1.988e-05
3.316e-05
3.289e-05
7.483e-06
9.408e-07
8.534e-07
1.765e-06
1.16e-05
8.936e-05
0.0002735
0.0005243
0.00231
0.005591
0.005605
0.007083
0.001359
0.0002325
4.934e-05
5.934e-05
0.0001003
0.0004409
0.0005983
0.0003426
0.0002964
0.0002969
0.0004411
0.000683
0.0006189
0.0002562
0.0002457
0.0005223
0.0002867
6.442e-05
8.344e-06
9.491e-07
1.364e-07
6.434e-08
7.058e-09
6.172e-10
3.726e-10
8.526e-10
5.727e-09
2.727e-08
1.452e-07
7.94e-07
3.384e-06
5.796e-06
2.773e-06
1.312e-06
1.635e-06
1.164e-05
9.62e-05
0.0009086
0.003313
0.004307
0.005831
0.007416
0.006451
0.01077
0.01197
0.00755
0.003269
0.002584
0.001248
0.0007198
0.000635
0.0008724
0.00109
0.0009544
0.001392
0.001241
0.002107
0.003747
0.0127
0.03013
0.05556
0.08809
0.2241
0.6535
0.8536
0.9547
0.9794
0.9747
0.9521
0.8674
0.501
0.06122
0.01389
0.003124
0.002311
0.001515
0.00145
0.000943
0.001151
0.0005699
0.0001472
3.778e-05
2.452e-05
4.674e-05
7.83e-05
0.0002028
0.0001412
0.0001314
0.0001517
0.0002351
0.0004019
0.0004846
0.0004993
0.0006199
0.0007204
0.0007279
0.001023
0.001209
0.001364
0.001448
0.001345
0.001163
0.001062
0.001019
0.000988
0.0009856
0.00101
0.001135
0.001433
0.002033
0.003016
0.003602
0.003443
0.00355
0.00453
0.007835
0.01857
0.04116
0.08317
0.1712
0.3722
0.6149
0.8222
0.9302
0.9785
0.995
0.999
0.9998
1
1
1
1
1
1
1
1
1
1.724e-05
2.152e-05
1.198e-05
8.549e-06
5.826e-06
4.903e-06
6.541e-06
1.622e-05
2.553e-05
2.927e-05
1.75e-05
5.323e-06
1.846e-06
2.052e-06
4.505e-06
1.791e-05
5.627e-05
0.0001865
0.0005347
0.001252
0.003454
0.006417
0.01432
0.007368
0.002177
0.0005955
0.0002768
0.0003038
0.0006817
0.0009881
0.0007609
0.001051
0.0009305
0.001154
0.0009607
0.0004989
0.0001363
0.0001844
0.0003778
0.000104
1.6e-05
1.628e-06
2.456e-07
5.237e-08
5.198e-08
1.096e-08
2.21e-09
1.57e-09
3.36e-09
6.362e-09
1.69e-08
5.489e-08
2.267e-07
8.701e-07
1.684e-06
9.548e-07
3.833e-07
3.854e-07
1.842e-06
1.853e-05
0.0003375
0.00238
0.005897
0.009191
0.008958
0.004235
0.003545
0.002644
0.001262
0.0004533
0.0003447
0.0002054
0.0001543
0.0001948
0.0006928
0.002591
0.005981
0.01978
0.03959
0.1001
0.3588
0.7387
0.8841
0.9416
0.9712
0.9919
0.9984
0.9995
0.9998
0.9998
0.9995
0.9983
0.9947
0.979
0.9531
0.907
0.7965
0.6185
0.2432
0.08033
0.02825
0.01873
0.005904
0.0009109
0.0002294
7.175e-05
7.007e-05
7.501e-05
0.0001046
2.881e-05
1.798e-05
1.081e-05
1.301e-05
2.64e-05
7.898e-05
0.0002636
0.0006879
0.0008276
0.0006805
0.0005833
0.000596
0.0008045
0.001058
0.001183
0.001108
0.001013
0.001055
0.001159
0.001336
0.001621
0.002263
0.003777
0.0073
0.01419
0.02552
0.04243
0.07192
0.1353
0.2569
0.4979
0.6847
0.8271
0.9146
0.966
0.9882
0.997
0.9993
0.9998
1
1
1
1
1
1
1
1
1
1
1
1
1.419e-05
1.419e-05
9.008e-06
7.08e-06
6.607e-06
8.464e-06
1.069e-05
1.62e-05
1.688e-05
1.481e-05
6.519e-06
3.483e-06
3.055e-06
5.013e-06
1.471e-05
3.616e-05
0.0001198
0.0001674
0.0002781
0.0002486
0.0005121
0.001385
0.005647
0.01015
0.006937
0.00236
0.0006594
0.000604
0.00066
0.001276
0.00197
0.004277
0.004053
0.004166
0.00143
0.0005037
0.000213
0.0003333
0.0003076
3.997e-05
4.432e-06
4.263e-07
1.178e-07
6.942e-08
9.577e-08
3.428e-08
2.114e-08
2.451e-08
2.521e-08
1.71e-08
1.601e-08
2.006e-08
9.324e-08
5.686e-07
1.415e-06
1.143e-06
6.826e-07
5.904e-07
1.686e-06
1.584e-05
0.0002179
0.001932
0.004215
0.005164
0.003215
0.0009968
0.000424
0.000336
0.0002481
0.0001668
0.0002606
0.0003344
0.0008591
0.003226
0.01532
0.0553
0.1686
0.5702
0.8047
0.9235
0.9771
0.9931
0.9976
0.9989
0.9995
0.9999
1
1
1
1
1
1
1
0.9998
0.9997
0.9993
0.9986
0.9964
0.9882
0.96
0.8894
0.7994
0.5285
0.07753
0.01146
0.003343
0.001709
0.001015
0.0006154
7.108e-05
1.314e-05
2.924e-06
1.712e-06
1.328e-06
5.449e-06
4.158e-05
0.0002221
0.0005314
0.0006988
0.000492
0.0005899
0.00135
0.002332
0.003487
0.004821
0.006152
0.009622
0.01567
0.02424
0.03286
0.04831
0.07559
0.119
0.2168
0.4333
0.6387
0.7879
0.885
0.9439
0.9798
0.993
0.9976
0.9991
0.9997
0.9999
1
1
1
1
1
1
1
1
1
1
1
1
1
1
1
1.224e-05
9.942e-06
8.029e-06
9.539e-06
1.388e-05
1.064e-05
5.52e-06
4.031e-06
2.755e-06
2.706e-06
2.446e-06
2.548e-06
6.131e-06
2.105e-05
4.855e-05
0.0001204
0.0002152
0.0001186
0.0001079
5.105e-05
9.489e-05
0.0002137
0.001674
0.007664
0.01254
0.007213
0.004543
0.003003
0.001764
0.002424
0.002602
0.003247
0.002082
0.001542
0.0005543
0.0002188
0.0001622
0.0004493
0.0002905
4.334e-05
3.221e-06
4.116e-07
7.777e-08
4.431e-08
3.962e-08
4.694e-08
2.219e-07
6.538e-07
6.954e-07
1.722e-07
2.854e-08
1.158e-08
5.454e-08
7.331e-07
4.884e-06
1.355e-05
1.365e-05
9.235e-06
1.476e-05
9.67e-05
0.0005669
0.00198
0.002437
0.001838
0.0007204
0.0002461
0.0001183
0.0001646
0.0003098
0.0006244
0.001877
0.009691
0.04118
0.2386
0.7215
0.8993
0.969
0.9903
0.997
0.999
0.9997
0.9999
1
1
1
1
1
1
1
1
1
1
1
1
1
1
1
1
0.9999
0.9994
0.9983
0.9964
0.9909
0.9732
0.9308
0.8059
0.5006
0.1252
0.03187
0.004107
0.0005769
6.259e-05
1.558e-05
6.436e-06
2.216e-05
0.00016
0.0008147
0.001741
0.002486
0.001759
0.002398
0.006666
0.0142
0.0253
0.0419
0.05543
0.07378
0.1121
0.2144
0.4373
0.6871
0.825
0.905
0.9566
0.9844
0.9942
0.9978
0.999
0.9995
0.9998
1
1
1
1
1
1
1
1
1
1
1
1
1
1
1
1
1
1
1
1
1.123e-05
8.898e-06
8.889e-06
1.326e-05
2.127e-05
1.579e-05
4.533e-06
2.016e-06
8.561e-07
1.562e-06
2.113e-06
8.324e-06
3.132e-05
7.01e-05
0.0001519
0.0004094
0.0003999
0.0002507
0.0001498
5.316e-05
9.007e-05
0.0002668
0.002107
0.008111
0.01502
0.01058
0.01069
0.007242
0.005308
0.005309
0.004991
0.003879
0.001822
0.0008052
0.0004755
0.0002649
0.0002908
0.0009236
0.0003363
4e-05
2.434e-06
1.853e-07
2.35e-08
1.455e-08
8.227e-09
2.038e-08
1.795e-07
1.543e-06
1.781e-06
3.945e-07
3.418e-08
1.396e-08
8.988e-08
2.241e-06
2.703e-05
8.585e-05
0.0001163
0.0001084
0.0001267
0.0003265
0.0004007
0.0004045
0.0002631
0.0001952
0.0001079
0.0001346
0.0002296
0.0009438
0.005033
0.02684
0.1589
0.6791
0.8981
0.9709
0.9914
0.9974
0.9993
0.9998
1
1
1
1
1
1
1
1
1
1
1
1
1
1
1
1
1
1
1
1
1
1
0.9999
0.9999
0.9998
0.9996
0.9991
0.997
0.9911
0.9797
0.9459
0.8528
0.595
0.1058
0.02289
0.006994
0.008144
0.02011
0.03663
0.04174
0.04683
0.03599
0.0469
0.09626
0.1728
0.3637
0.6327
0.8147
0.918
0.9549
0.9804
0.9907
0.9963
0.9984
0.9993
0.9997
0.9999
1
1
1
1
1
1
1
1
1
1
1
1
1
1
1
1
1
1
1
1
1
1
1
1
1
5.866e-06
5.604e-06
6.324e-06
9.286e-06
2.002e-05
1.778e-05
4.555e-06
1.92e-06
1.653e-06
3.401e-06
8.4e-06
4.705e-05
0.000103
0.0002078
0.0003411
0.0005108
0.0004589
0.0003492
0.0001894
7.763e-05
0.0001187
0.0003371
0.00179
0.004799
0.009927
0.00916
0.01502
0.013
0.01291
0.01065
0.0109
0.006813
0.003747
0.002124
0.00121
0.0007542
0.0008853
0.002036
0.0004924
7.31e-05
5.86e-06
4.859e-07
3.778e-08
2.602e-08
1.298e-08
4.72e-08
6.756e-07
1.011e-05
9.652e-06
2.562e-06
1.301e-07
3.488e-08
1.321e-07
2.931e-06
2.664e-05
0.0001045
0.0001922
0.0002244
0.0002754
0.000385
0.0002336
0.0001461
7.426e-05
0.0001107
0.0002449
0.001086
0.005715
0.0566
0.4936
0.8627
0.9639
0.9899
0.9968
0.999
0.9997
0.9999
1
1
1
1
1
1
1
1
1
1
1
1
1
1
1
1
1
1
1
1
1
1
1
1
1
1
1
1
1
0.9999
0.9998
0.9995
0.9989
0.9981
0.9962
0.991
0.9807
0.9542
0.9379
0.9388
0.9171
0.9071
0.9141
0.913
0.9435
0.9694
0.9826
0.9911
0.9963
0.9985
0.9994
0.9997
0.9999
0.9999
1
1
1
1
1
1
1
1
1
1
1
1
1
1
1
1
1
1
1
1
1
1
1
1
1
1
1
1
1
1
6.732e-06
5.977e-06
7.385e-06
9.151e-06
1.993e-05
2.69e-05
1.036e-05
7.496e-06
6.106e-06
1.315e-05
3.238e-05
0.0001384
0.0001871
0.0002733
0.0002786
0.0003277
0.000346
0.0003098
0.0002266
0.000194
0.0003493
0.000803
0.001928
0.002913
0.003514
0.003089
0.006215
0.006425
0.008888
0.01179
0.0149
0.01202
0.009788
0.005367
0.002436
0.001158
0.0009074
0.001619
0.0007795
0.0003066
5.008e-05
6.834e-06
7.006e-07
4.871e-07
2.772e-07
9.859e-07
8.01e-06
0.0001014
0.0001269
5.564e-05
4.166e-06
1.474e-06
3.168e-06
1.99e-05
8.707e-05
0.000158
0.0001704
0.000184
0.000165
0.0001801
0.0001407
0.0001443
0.0002528
0.001385
0.009628
0.09868
0.6447
0.9176
0.9785
0.9956
0.9992
0.9998
0.9999
1
1
1
1
1
1
1
1
1
1
1
1
1
1
1
1
1
1
1
1
1
1
1
1
1
1
1
1
1
1
1
1
1
1
1
1
1
1
0.9999
0.9999
0.9998
0.9996
0.9994
0.9988
0.9987
0.999
0.9993
0.9996
0.9998
0.9999
0.9999
1
1
1
1
1
1
1
1
1
1
1
1
1
1
1
1
1
1
1
1
1
1
1
1
1
1
1
1
1
1
1
1
1
1
1
1
1.367e-05
1.164e-05
1.711e-05
1.022e-05
1.589e-05
1.347e-05
9.636e-06
1.873e-05
3.821e-05
3.579e-05
4.798e-05
8.72e-05
0.0001313
0.000182
0.0002162
0.0001252
3.802e-05
1.281e-05
6.216e-06
5.17e-06
1.513e-05
6.483e-05
0.0002861
0.0007177
0.001206
0.00125
0.002123
0.002105
0.002533
0.002865
0.003914
0.005757
0.008832
0.006611
0.002839
0.0011
0.0006747
0.001303
0.001284
0.001293
0.000606
0.0001753
3.449e-05
2.661e-05
1.544e-05
5.347e-05
0.0002046
0.001278
0.001781
0.001115
0.0001997
6.225e-05
5.455e-05
8.405e-05
0.0001546
0.0001307
0.0001107
0.0001048
0.0001251
0.0002277
0.0005611
0.001815
0.009761
0.1175
0.6978
0.9219
0.9808
0.9968
0.9992
0.9998
1
1
1
1
1
1
1
1
1
1
1
1
1
1
1
1
1
1
1
1
1
1
1
1
1
1
1
1
1
1
1
1
1
1
1
1
1
1
1
1
1
1
1
1
1
1
1
1
1
1
1
1
1
1
1
1
1
1
1
1
1
1
1
1
1
1
1
1
1
1
1
1
1
1
1
1
1
1
1
1
1
1
1
1
1
1
1
1
1
1
3.454e-05
3.228e-05
5.771e-05
1.808e-05
1.472e-05
1.172e-05
1.704e-05
6.569e-05
0.0001651
9.141e-05
5.869e-05
4.241e-05
3.522e-05
0.0001129
8.414e-05
1.485e-05
2.635e-06
5.013e-07
2.202e-07
1.921e-07
9.645e-07
1.061e-05
8.992e-05
0.0003913
0.001135
0.001132
0.001676
0.001916
0.001781
0.001823
0.0028
0.005755
0.01181
0.01228
0.005361
0.001766
0.001088
0.001697
0.002451
0.004146
0.004882
0.002923
0.001263
0.001204
0.0007366
0.0006939
0.0009257
0.00219
0.004155
0.006055
0.003876
0.001547
0.0009611
0.0004415
0.0003697
0.0001935
0.0001716
0.0002163
0.0006625
0.001845
0.01385
0.1027
0.623
0.9054
0.9795
0.995
0.9991
0.9999
1
1
1
1
1
1
1
1
1
1
1
1
1
1
1
1
1
1
1
1
1
1
1
1
1
1
1
1
1
1
1
1
1
1
1
1
1
1
1
1
1
1
1
1
1
1
1
1
1
1
1
1
1
1
1
1
1
1
1
1
1
1
1
1
1
1
1
1
1
1
1
1
1
1
1
1
1
1
1
1
1
1
1
1
1
1
1
1
1
1
1
1
6.659e-05
7.084e-05
0.0002054
5.911e-05
1.793e-05
1.079e-05
2.707e-05
0.0001167
0.0003105
0.000177
6.287e-05
3.571e-05
4.151e-05
0.0001708
3.749e-05
2.554e-06
3.882e-07
8.383e-08
6.174e-08
6.093e-08
4.057e-07
4.974e-06
5.444e-05
0.0003432
0.001931
0.001564
0.002545
0.002703
0.001714
0.001309
0.001558
0.003604
0.008623
0.01076
0.005862
0.002866
0.002771
0.003702
0.006445
0.01011
0.01419
0.01323
0.01113
0.007821
0.004026
0.001953
0.001458
0.002098
0.004214
0.006588
0.004818
0.002284
0.001435
0.0007208
0.0007518
0.0005996
0.0009162
0.002466
0.01334
0.08337
0.6055
0.8922
0.9787
0.9962
0.9995
0.9999
1
1
1
1
1
1
1
1
1
1
1
1
1
1
1
1
1
1
1
1
1
1
1
1
1
1
1
1
1
1
1
1
1
1
1
1
1
1
1
1
1
1
1
1
1
1
1
1
1
1
1
1
1
1
1
1
1
1
1
1
1
1
1
1
1
1
1
1
1
1
1
1
1
1
1
1
1
1
1
1
1
1
1
1
1
1
1
1
1
1
1
1
1
1
0.0001036
0.000132
0.0003053
0.0001022
2.471e-05
3.293e-05
8.094e-05
0.0004167
0.0005994
0.0002769
6.577e-05
2.877e-05
3.292e-05
9.67e-05
7.546e-06
7.096e-07
2.152e-07
1.21e-07
1.777e-07
2.04e-07
1.083e-06
7.256e-06
8.926e-05
0.0004979
0.002923
0.002201
0.003141
0.00357
0.00276
0.002517
0.002573
0.004423
0.009389
0.01086
0.006614
0.004657
0.006109
0.007819
0.01054
0.01255
0.0177
0.02105
0.0321
0.02565
0.01292
0.004338
0.001735
0.001244
0.001894
0.00327
0.003074
0.002496
0.002547
0.00212
0.002761
0.005745
0.01998
0.07897
0.5769
0.8913
0.9732
0.9954
0.9995
1
1
1
1
1
1
1
1
1
1
1
1
1
1
1
1
1
1
1
1
1
1
1
1
1
1
1
1
1
1
1
1
1
1
1
1
1
1
1
1
1
1
1
1
1
1
1
1
1
1
1
1
1
1
1
1
1
1
1
1
1
1
1
1
1
1
1
1
1
1
1
1
1
1
1
1
1
1
1
1
1
1
1
1
1
1
1
1
1
1
1
1
1
1
1
1
1
9.725e-05
0.0001485
0.0002485
9.366e-05
2.055e-05
5.466e-05
0.0002299
0.001674
0.0018
0.0007055
0.0001513
4.752e-05
2.869e-05
4.57e-05
3.373e-06
5.32e-07
6.562e-07
1.278e-06
2.914e-06
3.489e-06
1.175e-05
4.173e-05
0.000425
0.001986
0.008833
0.005733
0.006566
0.005669
0.004062
0.003016
0.003274
0.005373
0.01143
0.01442
0.01022
0.008715
0.01332
0.01813
0.0181
0.01229
0.009813
0.008604
0.01315
0.01377
0.009053
0.004194
0.002426
0.001062
0.0008201
0.001138
0.001192
0.001805
0.004357
0.007779
0.01709
0.07048
0.4781
0.8457
0.9692
0.9946
0.9992
0.9999
1
1
1
1
1
1
1
1
1
1
1
1
1
1
1
1
1
1
1
1
1
1
1
1
1
1
1
1
1
1
1
1
1
1
1
1
1
1
1
1
1
1
1
1
1
1
1
1
1
1
1
1
1
1
1
1
1
1
1
1
1
1
1
1
1
1
1
1
1
1
1
1
1
1
1
1
1
1
1
1
1
1
1
1
1
1
1
1
1
1
1
1
1
1
1
1
1
1
0.0001637
0.0001872
0.0002336
0.0001108
2.911e-05
0.000152
0.0005814
0.003108
0.003158
0.001737
0.0004795
0.0001899
8.521e-05
7.114e-05
7.845e-06
2.638e-06
8.023e-06
2.471e-05
6.003e-05
6.832e-05
0.0001775
0.0003704
0.001467
0.004469
0.01002
0.007187
0.006524
0.005996
0.004875
0.003894
0.004185
0.00717
0.01625
0.02379
0.01887
0.01497
0.01662
0.01541
0.01082
0.005588
0.002697
0.002048
0.002754
0.004689
0.006276
0.006064
0.004984
0.001898
0.001143
0.0009441
0.001317
0.002418
0.01198
0.03418
0.2257
0.7827
0.9486
0.9892
0.9987
0.9999
1
1
1
1
1
1
1
1
1
1
1
1
1
1
1
1
1
1
1
1
1
1
1
1
1
1
1
1
1
1
1
1
1
1
1
1
1
1
1
1
1
1
1
1
1
1
1
1
1
1
1
1
1
1
1
1
1
1
1
1
1
1
1
1
1
1
1
1
1
1
1
1
1
1
1
1
1
1
1
1
1
1
1
1
1
1
1
1
1
1
1
1
1
1
1
1
1
1
1
1
0.0003786
0.0003744
0.0004394
0.0001527
5.079e-05
0.0001996
0.0004568
0.00228
0.003093
0.002812
0.0009979
0.0008123
0.000489
0.000325
6.156e-05
2.8e-05
6.056e-05
0.0001277
0.0002542
0.0005114
0.001143
0.001696
0.003164
0.004148
0.004004
0.004236
0.0063
0.004815
0.003631
0.002516
0.001872
0.002811
0.008564
0.01891
0.02171
0.01831
0.01595
0.01395
0.009301
0.005106
0.00198
0.001093
0.001072
0.001709
0.003023
0.005058
0.006843
0.003433
0.003183
0.002562
0.004761
0.01032
0.08652
0.5073
0.889
0.9816
0.9976
0.9997
1
1
1
1
1
1
1
1
1
1
1
1
1
1
1
1
1
1
1
1
1
1
1
1
1
0.9999
0.9997
0.9997
0.9994
0.9986
0.9984
0.9982
0.9986
0.9996
0.9998
0.9999
0.9999
0.9999
0.9999
1
1
1
1
1
1
1
1
1
1
1
1
1
1
1
1
1
1
1
1
1
1
1
1
1
1
1
1
1
1
1
1
1
1
1
1
1
1
1
1
1
1
1
1
1
1
1
1
1
1
1
1
1
1
1
1
1
1
1
1
1
1
1
0.0009055
0.0007975
0.0008111
0.0002155
9.351e-05
0.0001811
0.000183
0.0008867
0.002074
0.003179
0.001836
0.003239
0.001651
0.001232
0.0004407
0.0003206
0.0004299
0.0005431
0.0005177
0.0009993
0.002441
0.002891
0.003808
0.002983
0.002177
0.003112
0.008091
0.007687
0.005487
0.003455
0.0017
0.00179
0.004112
0.0125
0.02448
0.02873
0.0262
0.01858
0.01118
0.006551
0.00294
0.001385
0.001034
0.00139
0.001803
0.003668
0.007065
0.006378
0.01163
0.02183
0.07466
0.4261
0.8873
0.9772
0.9974
0.9997
1
1
1
1
1
1
1
1
1
1
1
1
1
1
1
1
1
1
1
1
1
1
1
0.9999
0.9995
0.9987
0.9977
0.9935
0.973
0.9575
0.9345
0.9073
0.9015
0.8898
0.8931
0.929
0.9546
0.9699
0.9813
0.9883
0.994
0.998
0.9995
0.9998
0.9999
1
1
1
1
1
1
1
1
1
1
1
1
1
1
1
1
1
1
1
1
1
1
1
1
1
1
1
1
1
1
1
1
1
1
1
1
1
1
1
1
1
1
1
1
1
1
1
1
1
1
1
1
1
1
1
1
1
1
1
0.001742
0.001433
0.001663
0.0003704
0.0001873
8.428e-05
4.072e-05
0.0001878
0.001063
0.003283
0.005119
0.009806
0.005011
0.00433
0.002225
0.001854
0.001169
0.001088
0.000635
0.001085
0.001821
0.001908
0.002716
0.001998
0.002859
0.005434
0.01645
0.01579
0.0115
0.005548
0.002307
0.001492
0.002223
0.007601
0.02195
0.04101
0.045
0.02526
0.01367
0.008738
0.00476
0.002832
0.00224
0.00213
0.002466
0.004506
0.01034
0.01948
0.06055
0.2357
0.7293
0.9405
0.994
0.9993
1
1
1
1
1
1
1
1
1
1
1
1
1
1
1
1
1
1
1
1
1
1
0.9999
0.9997
0.9981
0.9908
0.964
0.9051
0.8326
0.7205
0.4902
0.3413
0.217
0.1828
0.1451
0.12
0.1062
0.09981
0.1282
0.2202
0.3951
0.5191
0.7363
0.8926
0.9632
0.9854
0.9945
0.9975
0.9994
0.9997
0.9999
1
1
1
1
1
1
1
1
1
1
1
1
1
1
1
1
1
1
1
1
1
1
1
1
1
1
1
1
1
1
1
1
1
1
1
1
1
1
1
1
1
1
1
1
1
1
1
1
1
1
1
1
1
1
0.9998
0.001475
0.001371
0.001668
0.0003946
0.0003712
8.359e-05
3.678e-05
0.0001028
0.0007108
0.001784
0.004896
0.008726
0.005827
0.005959
0.004365
0.004702
0.00305
0.002207
0.001592
0.001342
0.001653
0.001501
0.001833
0.001519
0.002171
0.003364
0.0099
0.01288
0.01409
0.009353
0.00354
0.001256
0.0009591
0.002058
0.007455
0.02123
0.03092
0.0172
0.009388
0.007162
0.006755
0.006454
0.006857
0.006389
0.007457
0.01552
0.04444
0.1569
0.6294
0.8986
0.9813
0.9974
0.9998
1
1
1
1
1
1
1
1
1
1
1
1
1
1
1
1
1
1
1
1
1
0.9998
0.999
0.9926
0.9587
0.858
0.6008
0.3473
0.1802
0.08383
0.0372
0.01496
0.006765
0.004443
0.006601
0.006715
0.007784
0.006238
0.004994
0.006647
0.01344
0.02691
0.04836
0.08559
0.1206
0.2038
0.3481
0.5199
0.7588
0.9434
0.9841
0.9953
0.9987
0.9997
0.9999
1
1
1
1
1
1
1
1
1
1
1
1
1
1
1
1
1
1
1
1
1
1
1
1
1
1
1
1
1
1
1
1
1
1
1
1
1
1
1
1
1
1
1
1
1
1
1
1
0.9998
0.9982
0.9917
0.9702
0.001152
0.001487
0.002453
0.0005207
0.0005631
7.043e-05
3.316e-05
5.824e-05
0.000801
0.00146
0.004156
0.00458
0.004084
0.00461
0.003359
0.003526
0.003466
0.003442
0.003199
0.00167
0.0009264
0.0005536
0.0008614
0.001447
0.00271
0.002748
0.00561
0.007793
0.008591
0.006118
0.002811
0.0008796
0.0005614
0.001198
0.004222
0.01406
0.02447
0.01719
0.009863
0.008776
0.01134
0.01325
0.01613
0.0167
0.02338
0.05178
0.2136
0.6927
0.9323
0.9889
0.9986
0.9998
1
1
1
1
1
1
1
1
1
1
1
1
1
1
1
1
1
1
1
1
0.9997
0.9974
0.9818
0.9203
0.7254
0.3812
0.1069
0.03816
0.01218
0.006049
0.002552
0.001131
0.0004974
0.0003454
0.0002142
0.0005137
0.0009217
0.001272
0.001057
0.0008925
0.001234
0.00281
0.005551
0.009094
0.01199
0.01233
0.01649
0.02842
0.04886
0.08615
0.1741
0.4379
0.7097
0.8932
0.9703
0.9908
0.9974
0.9984
0.9995
0.9999
1
1
1
1
1
1
1
1
1
1
1
1
1
1
1
1
1
1
1
1
1
1
1
1
1
1
1
1
1
1
1
1
1
1
1
1
1
1
1
1
0.9999
0.9994
0.9969
0.986
0.944
0.7986
0.5814
0.3631
0.001177
0.001821
0.004016
0.0007547
0.0006433
6.941e-05
4.819e-05
9.024e-05
0.0006608
0.001023
0.002606
0.00306
0.004547
0.004992
0.002418
0.00231
0.003563
0.00649
0.006116
0.001832
0.0003898
0.0001766
0.0003595
0.001029
0.002923
0.002969
0.003537
0.005065
0.005769
0.003976
0.002184
0.0007721
0.0004957
0.001064
0.002868
0.008612
0.01339
0.009987
0.007006
0.007991
0.0135
0.01942
0.02728
0.03448
0.07094
0.3921
0.8315
0.9719
0.9972
0.9997
1
1
1
1
1
1
1
1
1
1
1
1
1
1
1
1
1
1
1
1
0.9995
0.9972
0.9838
0.9163
0.6607
0.1348
0.03024
0.01141
0.004148
0.002125
0.001042
0.0007547
0.0003262
0.0001525
5.456e-05
7.447e-05
6.927e-05
0.0002159
0.000431
0.0008177
0.0006933
0.0005274
0.0005712
0.001091
0.001792
0.002605
0.002692
0.001964
0.002136
0.00311
0.005179
0.008292
0.01888
0.04634
0.06909
0.1301
0.3397
0.595
0.7978
0.9072
0.9845
0.9992
0.9999
1
1
1
1
1
1
1
1
1
1
1
1
1
1
1
1
1
1
1
1
1
1
1
1
1
1
1
1
1
1
1
1
1
1
1
0.9999
0.9995
0.9982
0.9908
0.9642
0.8724
0.6401
0.313
0.138
0.05592
0.02658
0.00714
0.0006433
0.001041
0.003459
0.000773
0.0006286
9.203e-05
6.622e-05
0.0001353
0.0009653
0.001109
0.001526
0.001976
0.004825
0.006242
0.001965
0.001104
0.00121
0.003272
0.004679
0.002277
0.0003218
0.0001326
0.0002039
0.0008384
0.002738
0.003048
0.002946
0.003746
0.003239
0.00206
0.001248
0.0007849
0.000742
0.002161
0.004486
0.008052
0.008101
0.005794
0.003473
0.00368
0.006051
0.01105
0.02739
0.08879
0.4501
0.8755
0.9779
0.9981
0.9999
1
1
1
1
1
1
1
1
1
1
1
1
1
1
1
1
1
1
1
0.9997
0.9965
0.9713
0.8693
0.4367
0.07691
0.02264
0.007203
0.003045
0.00169
0.0008596
0.0007115
0.0004887
0.0004235
0.0001875
0.0001501
0.0001032
0.0001692
0.0001753
0.0005105
0.0009488
0.00172
0.001419
0.0009702
0.0009753
0.001046
0.001283
0.001611
0.001462
0.001016
0.0008169
0.0008484
0.0009362
0.000994
0.001759
0.003117
0.004603
0.01023
0.03282
0.07709
0.2305
0.6618
0.9407
0.998
0.9999
1
1
1
1
1
1
1
1
1
1
1
1
1
1
1
1
1
1
1
1
1
1
1
1
1
1
1
1
1
1
0.9999
0.9997
0.9987
0.9962
0.9884
0.9661
0.8978
0.7613
0.4411
0.1824
0.06822
0.02878
0.01018
0.00379
0.00145
0.000548
5.676e-05
0.0002291
0.0003803
0.001948
0.0006359
0.0005507
0.0001954
0.0001491
0.0002795
0.002192
0.001568
0.001086
0.001674
0.005003