/*--------------------------------*- C++ -*----------------------------------*\
| =========                 |                                                 |
| \\      /  F ield         | OpenFOAM: The Open Source CFD Toolbox           |
|  \\    /   O peration     | Version:  5.x                                   |
|   \\  /    A nd           | Web:      www.OpenFOAM.org                      |
|    \\/     M anipulation  |                                                 |
\*---------------------------------------------------------------------------*/
FoamFile
{
    version     2.0;
    format      ascii;
    class       volScalarField;
    location    "40";
    object      T;
}
// * * * * * * * * * * * * * * * * * * * * * * * * * * * * * * * * * * * * * //

dimensions      [0 0 0 1 0 0 0];

internalField   nonuniform List<scalar> 
86400
(
21.69
21.69
21.69
21.69
21.69
21.69
21.68
21.68
21.68
21.68
21.68
21.69
21.69
21.7
21.71
21.73
21.76
21.79
21.82
21.85
21.89
21.93
21.97
22.02
22.06
22.11
22.16
22.21
22.26
22.31
22.36
22.42
22.47
22.53
22.59
22.65
22.72
22.78
22.83
22.88
22.93
22.98
23.03
23.09
23.14
23.19
23.24
23.3
23.36
23.41
23.46
23.51
23.55
23.6
23.63
23.67
23.71
23.74
23.77
23.8
23.83
23.85
23.87
23.9
23.92
23.94
23.95
23.97
23.97
23.98
23.98
23.98
23.98
23.97
23.96
23.95
23.94
23.92
23.91
23.89
23.87
23.86
23.84
23.82
23.79
23.77
23.75
23.72
23.7
23.67
23.65
23.62
23.59
23.57
23.54
23.51
23.48
23.45
23.42
23.39
23.36
23.33
23.29
23.26
23.23
23.2
23.16
23.13
23.09
23.06
23.03
22.99
22.96
22.93
22.89
22.86
22.83
22.8
22.77
22.74
22.71
22.68
22.65
22.62
22.59
22.56
22.53
22.5
22.47
22.45
22.42
22.39
22.36
22.33
22.31
22.28
22.25
22.22
22.19
22.16
22.13
22.1
22.07
22.04
22.01
21.97
21.94
21.9
21.87
21.83
21.79
21.75
21.72
21.68
21.64
21.6
21.57
21.54
21.51
21.48
21.69
21.69
21.69
21.69
21.69
21.68
21.68
21.68
21.68
21.68
21.68
21.68
21.68
21.69
21.7
21.72
21.75
21.78
21.81
21.85
21.88
21.92
21.97
22.01
22.06
22.1
22.15
22.2
22.25
22.3
22.36
22.41
22.47
22.52
22.58
22.64
22.71
22.77
22.82
22.88
22.93
22.98
23.03
23.08
23.14
23.19
23.24
23.3
23.36
23.41
23.46
23.51
23.55
23.59
23.63
23.67
23.7
23.73
23.76
23.79
23.82
23.84
23.87
23.89
23.91
23.93
23.94
23.95
23.96
23.97
23.97
23.97
23.97
23.96
23.95
23.94
23.92
23.91
23.89
23.87
23.85
23.83
23.82
23.79
23.77
23.75
23.73
23.7
23.68
23.65
23.62
23.6
23.57
23.54
23.51
23.48
23.45
23.42
23.39
23.36
23.33
23.3
23.27
23.23
23.2
23.17
23.13
23.1
23.06
23.03
22.99
22.96
22.93
22.89
22.86
22.83
22.8
22.76
22.73
22.7
22.67
22.64
22.61
22.58
22.55
22.53
22.5
22.47
22.44
22.41
22.38
22.36
22.33
22.3
22.27
22.24
22.21
22.18
22.16
22.13
22.1
22.06
22.03
22
21.97
21.93
21.9
21.86
21.83
21.79
21.75
21.71
21.67
21.63
21.59
21.54
21.5
21.45
21.38
21.29
21.69
21.69
21.69
21.68
21.68
21.68
21.68
21.68
21.67
21.67
21.67
21.67
21.67
21.67
21.68
21.7
21.72
21.75
21.79
21.82
21.86
21.9
21.95
21.99
22.04
22.09
22.14
22.18
22.23
22.29
22.34
22.39
22.45
22.5
22.56
22.62
22.68
22.75
22.81
22.86
22.92
22.97
23.03
23.08
23.13
23.19
23.24
23.3
23.35
23.4
23.45
23.5
23.54
23.58
23.62
23.66
23.69
23.72
23.75
23.78
23.8
23.83
23.85
23.87
23.88
23.9
23.91
23.92
23.93
23.93
23.93
23.93
23.93
23.92
23.9
23.89
23.87
23.86
23.84
23.82
23.8
23.78
23.76
23.74
23.72
23.69
23.67
23.64
23.62
23.59
23.56
23.53
23.5
23.47
23.44
23.41
23.38
23.35
23.32
23.29
23.25
23.22
23.19
23.15
23.12
23.08
23.05
23.01
22.98
22.94
22.91
22.87
22.84
22.81
22.77
22.74
22.71
22.68
22.65
22.62
22.59
22.56
22.53
22.5
22.47
22.44
22.41
22.38
22.35
22.32
22.3
22.27
22.24
22.21
22.18
22.15
22.12
22.09
22.06
22.03
22
21.97
21.93
21.9
21.86
21.83
21.79
21.75
21.71
21.67
21.63
21.58
21.53
21.48
21.42
21.36
21.29
21.2
21.08
20.92
21.68
21.68
21.68
21.68
21.68
21.68
21.67
21.67
21.66
21.65
21.65
21.64
21.64
21.64
21.64
21.66
21.68
21.71
21.74
21.78
21.82
21.86
21.9
21.95
22
22.04
22.09
22.14
22.19
22.24
22.29
22.34
22.4
22.45
22.51
22.57
22.63
22.7
22.76
22.83
22.89
22.95
23
23.06
23.11
23.17
23.22
23.27
23.33
23.38
23.43
23.47
23.51
23.55
23.59
23.62
23.66
23.69
23.71
23.74
23.76
23.78
23.8
23.81
23.82
23.83
23.84
23.85
23.85
23.85
23.85
23.84
23.83
23.82
23.81
23.79
23.77
23.76
23.74
23.72
23.7
23.67
23.65
23.63
23.61
23.58
23.55
23.53
23.5
23.47
23.44
23.41
23.37
23.34
23.31
23.27
23.24
23.21
23.17
23.14
23.1
23.07
23.03
23
22.96
22.92
22.88
22.85
22.81
22.78
22.74
22.71
22.67
22.64
22.61
22.57
22.54
22.51
22.48
22.45
22.42
22.39
22.36
22.33
22.3
22.27
22.24
22.21
22.18
22.15
22.12
22.09
22.06
22.03
22
21.97
21.94
21.91
21.88
21.84
21.81
21.77
21.74
21.7
21.66
21.62
21.57
21.53
21.48
21.43
21.38
21.32
21.25
21.18
21.1
21.01
20.9
20.76
20.59
20.36
21.68
21.68
21.68
21.68
21.67
21.67
21.66
21.65
21.64
21.63
21.61
21.59
21.58
21.58
21.58
21.59
21.61
21.63
21.66
21.69
21.73
21.76
21.8
21.84
21.89
21.93
21.98
22.03
22.08
22.13
22.18
22.23
22.28
22.33
22.39
22.45
22.51
22.59
22.66
22.73
22.8
22.87
22.93
22.99
23.05
23.11
23.16
23.21
23.26
23.31
23.36
23.4
23.44
23.48
23.51
23.54
23.57
23.6
23.62
23.64
23.66
23.67
23.68
23.69
23.7
23.7
23.7
23.7
23.7
23.7
23.69
23.68
23.67
23.66
23.64
23.62
23.6
23.58
23.56
23.54
23.52
23.5
23.47
23.44
23.42
23.39
23.36
23.33
23.29
23.26
23.22
23.19
23.15
23.11
23.08
23.04
23
22.96
22.92
22.88
22.85
22.81
22.77
22.73
22.69
22.65
22.61
22.57
22.53
22.5
22.46
22.43
22.39
22.36
22.32
22.29
22.26
22.23
22.2
22.16
22.13
22.1
22.07
22.04
22.01
21.98
21.95
21.92
21.89
21.86
21.83
21.8
21.77
21.73
21.7
21.67
21.63
21.6
21.56
21.53
21.49
21.45
21.41
21.36
21.32
21.27
21.21
21.16
21.1
21.04
20.97
20.89
20.8
20.71
20.6
20.47
20.32
20.14
19.92
19.67
21.67
21.67
21.67
21.67
21.66
21.66
21.64
21.63
21.61
21.58
21.55
21.53
21.51
21.5
21.5
21.5
21.51
21.52
21.54
21.56
21.58
21.6
21.63
21.67
21.71
21.75
21.8
21.85
21.9
21.95
22
22.05
22.1
22.15
22.2
22.27
22.34
22.41
22.49
22.58
22.66
22.73
22.8
22.87
22.93
22.99
23.04
23.09
23.14
23.18
23.23
23.27
23.3
23.34
23.37
23.4
23.42
23.44
23.46
23.48
23.49
23.5
23.5
23.51
23.51
23.51
23.5
23.5
23.49
23.48
23.46
23.45
23.43
23.42
23.4
23.38
23.36
23.34
23.32
23.29
23.27
23.24
23.21
23.18
23.14
23.11
23.07
23.03
22.99
22.95
22.91
22.87
22.83
22.78
22.74
22.69
22.65
22.6
22.56
22.51
22.47
22.42
22.37
22.33
22.29
22.24
22.2
22.16
22.12
22.09
22.05
22.01
21.98
21.94
21.91
21.88
21.84
21.81
21.78
21.75
21.72
21.68
21.65
21.62
21.59
21.56
21.53
21.5
21.46
21.43
21.4
21.37
21.33
21.3
21.26
21.23
21.19
21.15
21.11
21.07
21.03
20.98
20.93
20.88
20.83
20.77
20.71
20.64
20.57
20.49
20.4
20.31
20.2
20.08
19.95
19.79
19.62
19.42
19.19
18.94
21.66
21.66
21.66
21.66
21.65
21.64
21.62
21.59
21.56
21.52
21.48
21.45
21.43
21.42
21.41
21.41
21.41
21.4
21.39
21.38
21.39
21.4
21.43
21.46
21.5
21.55
21.59
21.64
21.7
21.76
21.81
21.86
21.91
21.97
22.02
22.08
22.15
22.23
22.32
22.4
22.49
22.57
22.65
22.71
22.78
22.83
22.89
22.94
22.98
23.02
23.06
23.1
23.13
23.16
23.19
23.21
23.23
23.24
23.26
23.27
23.27
23.28
23.28
23.28
23.27
23.26
23.25
23.24
23.22
23.2
23.19
23.17
23.14
23.12
23.1
23.08
23.06
23.03
23.01
22.98
22.94
22.91
22.87
22.83
22.79
22.75
22.7
22.66
22.61
22.56
22.51
22.46
22.4
22.35
22.3
22.24
22.19
22.13
22.08
22.03
21.97
21.92
21.87
21.82
21.77
21.72
21.68
21.64
21.59
21.55
21.52
21.48
21.44
21.4
21.37
21.33
21.3
21.27
21.23
21.2
21.17
21.14
21.11
21.07
21.04
21.01
20.98
20.95
20.91
20.88
20.85
20.81
20.78
20.74
20.7
20.66
20.62
20.58
20.54
20.49
20.44
20.39
20.33
20.28
20.22
20.15
20.08
20
19.92
19.83
19.73
19.63
19.51
19.38
19.23
19.07
18.89
18.7
18.49
18.28
21.65
21.65
21.65
21.64
21.63
21.61
21.58
21.54
21.5
21.45
21.41
21.38
21.36
21.35
21.34
21.32
21.3
21.27
21.24
21.22
21.22
21.23
21.25
21.28
21.33
21.37
21.42
21.47
21.53
21.59
21.65
21.7
21.76
21.82
21.87
21.93
21.99
22.07
22.15
22.24
22.33
22.41
22.48
22.55
22.62
22.67
22.72
22.77
22.81
22.85
22.88
22.91
22.94
22.96
22.99
23
23.02
23.03
23.03
23.04
23.04
23.03
23.03
23.02
23
22.99
22.97
22.95
22.93
22.9
22.88
22.85
22.83
22.8
22.77
22.74
22.71
22.68
22.65
22.61
22.57
22.52
22.48
22.43
22.37
22.32
22.26
22.21
22.15
22.09
22.02
21.96
21.9
21.83
21.77
21.7
21.64
21.57
21.51
21.45
21.38
21.32
21.27
21.21
21.16
21.11
21.06
21.01
20.97
20.92
20.88
20.84
20.8
20.77
20.73
20.69
20.66
20.62
20.59
20.56
20.52
20.49
20.46
20.43
20.4
20.36
20.33
20.3
20.27
20.23
20.2
20.16
20.13
20.09
20.05
20.01
19.97
19.92
19.87
19.83
19.77
19.72
19.66
19.6
19.53
19.46
19.39
19.31
19.22
19.13
19.03
18.92
18.8
18.67
18.53
18.38
18.23
18.06
17.9
17.74
21.63
21.63
21.62
21.62
21.6
21.57
21.54
21.49
21.44
21.39
21.35
21.32
21.3
21.29
21.26
21.23
21.19
21.16
21.14
21.13
21.14
21.14
21.16
21.19
21.22
21.26
21.31
21.35
21.41
21.46
21.52
21.59
21.65
21.7
21.76
21.81
21.87
21.93
22.01
22.09
22.18
22.26
22.33
22.4
22.46
22.51
22.56
22.6
22.64
22.67
22.7
22.72
22.74
22.76
22.78
22.79
22.8
22.8
22.8
22.8
22.79
22.78
22.77
22.75
22.73
22.7
22.67
22.64
22.62
22.58
22.55
22.52
22.48
22.45
22.41
22.37
22.33
22.29
22.24
22.19
22.14
22.09
22.03
21.97
21.9
21.84
21.77
21.7
21.63
21.56
21.48
21.41
21.33
21.26
21.18
21.1
21.03
20.95
20.88
20.8
20.73
20.67
20.6
20.54
20.49
20.43
20.38
20.33
20.28
20.23
20.19
20.15
20.1
20.07
20.03
19.99
19.95
19.92
19.89
19.85
19.82
19.79
19.76
19.72
19.69
19.66
19.63
19.6
19.56
19.53
19.5
19.46
19.43
19.39
19.35
19.31
19.27
19.22
19.17
19.13
19.07
19.02
18.96
18.9
18.84
18.77
18.7
18.62
18.53
18.45
18.35
18.25
18.14
18.03
17.92
17.8
17.68
17.57
17.47
17.38
21.61
21.61
21.6
21.59
21.57
21.53
21.49
21.43
21.38
21.34
21.3
21.28
21.25
21.23
21.19
21.16
21.13
21.11
21.1
21.1
21.1
21.11
21.12
21.14
21.16
21.2
21.23
21.28
21.32
21.38
21.43
21.49
21.55
21.61
21.67
21.72
21.77
21.83
21.89
21.96
22.04
22.12
22.19
22.25
22.3
22.35
22.39
22.43
22.46
22.49
22.51
22.53
22.55
22.56
22.57
22.58
22.58
22.58
22.57
22.56
22.54
22.52
22.5
22.47
22.44
22.4
22.37
22.33
22.29
22.25
22.21
22.17
22.12
22.08
22.03
21.98
21.92
21.87
21.81
21.75
21.68
21.62
21.55
21.47
21.4
21.32
21.24
21.16
21.08
20.99
20.9
20.82
20.73
20.64
20.55
20.46
20.38
20.29
20.21
20.13
20.06
19.98
19.92
19.85
19.79
19.73
19.67
19.62
19.57
19.52
19.47
19.43
19.38
19.34
19.3
19.27
19.23
19.2
19.16
19.13
19.1
19.07
19.04
19
18.98
18.95
18.92
18.88
18.85
18.82
18.79
18.76
18.72
18.69
18.65
18.61
18.57
18.53
18.49
18.44
18.39
18.34
18.29
18.23
18.18
18.12
18.05
17.98
17.91
17.84
17.76
17.68
17.6
17.52
17.44
17.37
17.3
17.25
17.22
17.22
21.58
21.57
21.57
21.56
21.53
21.49
21.44
21.38
21.33
21.3
21.26
21.24
21.21
21.17
21.14
21.11
21.09
21.09
21.09
21.09
21.09
21.1
21.1
21.12
21.13
21.16
21.19
21.22
21.26
21.31
21.36
21.42
21.47
21.53
21.58
21.64
21.68
21.73
21.79
21.85
21.92
21.99
22.05
22.1
22.15
22.2
22.23
22.26
22.29
22.31
22.33
22.35
22.36
22.37
22.37
22.37
22.36
22.35
22.33
22.31
22.28
22.25
22.22
22.18
22.14
22.1
22.05
22
21.96
21.9
21.85
21.8
21.74
21.68
21.62
21.56
21.5
21.43
21.36
21.28
21.21
21.13
21.05
20.96
20.87
20.79
20.69
20.6
20.5
20.41
20.31
20.21
20.11
20.01
19.91
19.82
19.72
19.63
19.54
19.46
19.38
19.3
19.23
19.16
19.09
19.03
18.97
18.92
18.86
18.81
18.76
18.72
18.68
18.64
18.6
18.56
18.52
18.49
18.46
18.43
18.4
18.37
18.34
18.31
18.28
18.26
18.23
18.2
18.17
18.15
18.12
18.09
18.06
18.02
17.99
17.96
17.92
17.89
17.85
17.81
17.78
17.73
17.69
17.65
17.6
17.55
17.5
17.45
17.4
17.35
17.3
17.25
17.21
17.17
17.13
17.11
17.11
17.13
17.17
17.24
21.54
21.54
21.54
21.52
21.5
21.45
21.4
21.35
21.3
21.26
21.23
21.19
21.16
21.12
21.1
21.09
21.08
21.08
21.08
21.08
21.08
21.09
21.09
21.1
21.11
21.13
21.16
21.19
21.22
21.26
21.3
21.35
21.4
21.46
21.51
21.56
21.61
21.65
21.7
21.75
21.8
21.86
21.91
21.96
22.01
22.05
22.08
22.1
22.13
22.14
22.16
22.17
22.17
22.17
22.17
22.15
22.14
22.12
22.09
22.05
22.02
21.98
21.93
21.88
21.83
21.78
21.72
21.67
21.61
21.55
21.48
21.42
21.35
21.28
21.21
21.14
21.06
20.98
20.9
20.81
20.73
20.64
20.54
20.45
20.35
20.25
20.14
20.04
19.93
19.82
19.71
19.6
19.5
19.39
19.28
19.18
19.08
18.99
18.9
18.81
18.72
18.64
18.57
18.5
18.43
18.37
18.31
18.25
18.2
18.15
18.1
18.05
18.01
17.97
17.94
17.9
17.87
17.84
17.81
17.78
17.75
17.73
17.7
17.68
17.65
17.63
17.61
17.58
17.56
17.54
17.51
17.49
17.47
17.44
17.42
17.39
17.37
17.34
17.31
17.29
17.26
17.23
17.2
17.17
17.14
17.11
17.09
17.06
17.03
17.01
17
16.98
16.98
16.99
17.01
17.05
17.11
17.19
17.31
17.46
21.51
21.51
21.5
21.49
21.46
21.42
21.36
21.31
21.26
21.22
21.18
21.14
21.11
21.09
21.08
21.07
21.07
21.07
21.07
21.07
21.07
21.08
21.08
21.09
21.1
21.12
21.13
21.16
21.19
21.22
21.26
21.3
21.34
21.39
21.44
21.49
21.54
21.58
21.62
21.66
21.7
21.75
21.79
21.83
21.87
21.91
21.94
21.96
21.97
21.99
21.99
21.99
21.99
21.98
21.96
21.94
21.91
21.87
21.84
21.79
21.74
21.69
21.64
21.58
21.52
21.46
21.39
21.33
21.26
21.19
21.11
21.04
20.96
20.88
20.8
20.71
20.63
20.54
20.44
20.35
20.25
20.15
20.04
19.94
19.83
19.72
19.6
19.49
19.37
19.25
19.14
19.02
18.91
18.79
18.68
18.58
18.48
18.38
18.29
18.2
18.11
18.03
17.95
17.88
17.82
17.75
17.69
17.64
17.59
17.54
17.49
17.45
17.41
17.38
17.34
17.31
17.28
17.26
17.23
17.21
17.19
17.16
17.14
17.13
17.11
17.09
17.07
17.05
17.04
17.02
17.01
16.99
16.97
16.96
16.95
16.93
16.92
16.9
16.89
16.88
16.86
16.85
16.84
16.83
16.83
16.82
16.82
16.82
16.83
16.84
16.86
16.89
16.94
16.99
17.07
17.17
17.29
17.44
17.63
17.85
21.47
21.47
21.46
21.45
21.43
21.39
21.33
21.28
21.23
21.18
21.13
21.1
21.08
21.07
21.07
21.06
21.06
21.06
21.06
21.07
21.07
21.07
21.07
21.08
21.09
21.1
21.12
21.14
21.16
21.19
21.22
21.25
21.29
21.34
21.38
21.43
21.47
21.51
21.54
21.58
21.61
21.65
21.68
21.72
21.75
21.78
21.8
21.82
21.83
21.83
21.83
21.82
21.8
21.78
21.75
21.71
21.67
21.63
21.58
21.52
21.47
21.41
21.34
21.28
21.21
21.14
21.06
20.99
20.91
20.83
20.75
20.66
20.57
20.48
20.39
20.3
20.2
20.1
20
19.89
19.78
19.67
19.56
19.44
19.33
19.2
19.08
18.96
18.83
18.71
18.59
18.47
18.35
18.24
18.13
18.02
17.91
17.82
17.72
17.63
17.55
17.47
17.4
17.33
17.26
17.2
17.15
17.1
17.05
17
16.96
16.93
16.89
16.86
16.83
16.81
16.78
16.76
16.74
16.73
16.71
16.69
16.68
16.67
16.66
16.65
16.64
16.63
16.62
16.61
16.61
16.6
16.6
16.6
16.6
16.59
16.59
16.6
16.6
16.6
16.61
16.62
16.63
16.64
16.66
16.68
16.71
16.74
16.78
16.84
16.9
16.97
17.06
17.17
17.3
17.46
17.64
17.86
18.11
18.41
21.43
21.43
21.42
21.42
21.39
21.35
21.3
21.24
21.18
21.13
21.09
21.07
21.06
21.06
21.06
21.05
21.05
21.05
21.06
21.06
21.06
21.06
21.07
21.07
21.08
21.09
21.1
21.12
21.14
21.16
21.19
21.22
21.25
21.29
21.33
21.37
21.4
21.44
21.47
21.5
21.53
21.56
21.59
21.61
21.64
21.66
21.67
21.68
21.68
21.67
21.66
21.64
21.61
21.57
21.53
21.49
21.44
21.38
21.32
21.26
21.19
21.13
21.05
20.98
20.9
20.82
20.74
20.66
20.57
20.48
20.39
20.29
20.2
20.1
20
19.9
19.79
19.68
19.57
19.46
19.34
19.22
19.1
18.97
18.85
18.72
18.59
18.46
18.33
18.21
18.08
17.96
17.84
17.72
17.61
17.51
17.4
17.31
17.21
17.13
17.05
16.97
16.9
16.84
16.78
16.72
16.67
16.63
16.58
16.55
16.51
16.48
16.46
16.43
16.41
16.39
16.38
16.36
16.35
16.34
16.33
16.32
16.32
16.32
16.31
16.31
16.31
16.32
16.32
16.32
16.33
16.34
16.35
16.36
16.37
16.39
16.4
16.42
16.44
16.47
16.49
16.52
16.56
16.6
16.64
16.7
16.75
16.82
16.9
16.99
17.1
17.22
17.36
17.51
17.7
17.91
18.15
18.42
18.74
19.1
21.38
21.38
21.38
21.38
21.36
21.32
21.27
21.2
21.13
21.08
21.06
21.05
21.05
21.05
21.05
21.05
21.05
21.05
21.05
21.05
21.05
21.05
21.06
21.06
21.07
21.08
21.09
21.1
21.12
21.14
21.16
21.19
21.21
21.24
21.28
21.31
21.34
21.37
21.4
21.43
21.45
21.47
21.49
21.51
21.52
21.53
21.53
21.53
21.52
21.5
21.48
21.45
21.41
21.36
21.32
21.26
21.2
21.14
21.08
21.01
20.93
20.86
20.78
20.69
20.61
20.52
20.43
20.34
20.24
20.14
20.04
19.94
19.84
19.73
19.62
19.51
19.4
19.28
19.16
19.04
18.92
18.79
18.66
18.53
18.4
18.27
18.13
18
17.87
17.74
17.62
17.49
17.37
17.26
17.15
17.04
16.94
16.85
16.76
16.68
16.61
16.54
16.47
16.41
16.36
16.31
16.27
16.23
16.2
16.17
16.14
16.12
16.1
16.09
16.08
16.07
16.06
16.05
16.05
16.05
16.05
16.05
16.06
16.07
16.08
16.09
16.1
16.11
16.13
16.15
16.17
16.19
16.22
16.24
16.27
16.31
16.34
16.38
16.42
16.47
16.52
16.57
16.63
16.7
16.77
16.86
16.95
17.05
17.17
17.3
17.45
17.61
17.8
18
18.24
18.5
18.8
19.13
19.51
19.93
21.32
21.33
21.33
21.33
21.31
21.28
21.22
21.15
21.09
21.06
21.05
21.04
21.04
21.04
21.04
21.04
21.04
21.04
21.04
21.04
21.04
21.04
21.05
21.05
21.05
21.06
21.07
21.08
21.09
21.11
21.13
21.15
21.17
21.2
21.22
21.25
21.28
21.3
21.32
21.34
21.36
21.37
21.38
21.39
21.39
21.38
21.38
21.36
21.34
21.32
21.29
21.25
21.21
21.16
21.11
21.05
20.98
20.92
20.84
20.76
20.68
20.6
20.51
20.42
20.33
20.23
20.13
20.03
19.93
19.82
19.72
19.61
19.5
19.38
19.26
19.15
19.02
18.9
18.77
18.65
18.52
18.38
18.25
18.12
17.98
17.85
17.71
17.58
17.45
17.32
17.19
17.07
16.95
16.84
16.73
16.63
16.54
16.45
16.37
16.29
16.22
16.16
16.11
16.06
16.01
15.98
15.94
15.91
15.89
15.87
15.85
15.84
15.83
15.83
15.82
15.82
15.83
15.83
15.84
15.85
15.87
15.88
15.9
15.92
15.94
15.97
15.99
16.02
16.05
16.09
16.12
16.16
16.2
16.25
16.29
16.35
16.4
16.46
16.52
16.59
16.67
16.75
16.84
16.93
17.04
17.15
17.28
17.42
17.58
17.75
17.93
18.14
18.37
18.62
18.91
19.22
19.57
19.96
20.39
20.86
21.27
21.27
21.27
21.27
21.26
21.23
21.18
21.11
21.06
21.04
21.03
21.03
21.03
21.03
21.03
21.03
21.02
21.03
21.03
21.03
21.03
21.03
21.03
21.03
21.03
21.03
21.04
21.04
21.05
21.06
21.08
21.09
21.11
21.13
21.15
21.17
21.2
21.21
21.23
21.24
21.25
21.26
21.26
21.26
21.25
21.24
21.22
21.2
21.18
21.15
21.11
21.07
21.02
20.97
20.91
20.85
20.78
20.7
20.62
20.54
20.45
20.36
20.26
20.16
20.06
19.96
19.85
19.74
19.63
19.52
19.4
19.29
19.17
19.05
18.92
18.8
18.67
18.54
18.41
18.28
18.14
18.01
17.87
17.73
17.6
17.46
17.32
17.19
17.06
16.93
16.81
16.69
16.57
16.46
16.36
16.27
16.18
16.1
16.02
15.96
15.9
15.85
15.8
15.76
15.73
15.7
15.68
15.66
15.65
15.64
15.64
15.64
15.64
15.65
15.65
15.67
15.68
15.7
15.72
15.75
15.77
15.8
15.83
15.87
15.91
15.94
15.99
16.03
16.08
16.13
16.18
16.24
16.3
16.36
16.43
16.5
16.58
16.66
16.75
16.84
16.94
17.05
17.16
17.29
17.43
17.58
17.74
17.91
18.1
18.31
18.54
18.79
19.06
19.36
19.69
20.06
20.46
20.89
21.36
21.85
21.2
21.2
21.21
21.21
21.2
21.18
21.14
21.08
21.04
21.03
21.03
21.02
21.02
21.02
21.02
21.01
21.01
21.01
21.01
21.01
21.01
21.01
21
21
20.99
20.98
20.98
20.98
20.99
20.99
21
21.02
21.03
21.04
21.06
21.08
21.1
21.11
21.12
21.13
21.13
21.14
21.13
21.12
21.11
21.1
21.08
21.05
21.02
20.99
20.94
20.9
20.84
20.79
20.72
20.65
20.57
20.49
20.41
20.32
20.22
20.12
20.02
19.91
19.8
19.69
19.58
19.46
19.35
19.23
19.11
18.98
18.86
18.73
18.6
18.47
18.34
18.2
18.07
17.93
17.8
17.66
17.52
17.38
17.24
17.1
16.97
16.84
16.71
16.58
16.46
16.34
16.23
16.13
16.04
15.95
15.87
15.8
15.73
15.68
15.63
15.59
15.56
15.53
15.51
15.49
15.48
15.48
15.48
15.48
15.49
15.5
15.52
15.54
15.56
15.59
15.62
15.65
15.68
15.72
15.76
15.81
15.86
15.91
15.96
16.01
16.07
16.13
16.2
16.27
16.34
16.41
16.49
16.58
16.67
16.76
16.86
16.96
17.07
17.19
17.32
17.46
17.6
17.76
17.93
18.11
18.3
18.51
18.74
18.98
19.25
19.54
19.85
20.2
20.58
20.99
21.42
21.88
22.36
22.85
21.13
21.13
21.13
21.13
21.12
21.11
21.09
21.06
21.03
21.02
21.02
21.01
21.01
21.01
21
21
21
21
21
21
20.99
20.97
20.95
20.93
20.91
20.9
20.89
20.89
20.89
20.89
20.9
20.91
20.92
20.93
20.95
20.96
20.98
20.99
21
21.01
21.01
21.01
21.01
21
20.99
20.97
20.95
20.92
20.88
20.84
20.79
20.74
20.68
20.61
20.54
20.46
20.38
20.29
20.2
20.1
20
19.9
19.79
19.67
19.56
19.44
19.32
19.2
19.07
18.95
18.82
18.69
18.56
18.43
18.3
18.16
18.03
17.89
17.75
17.61
17.47
17.33
17.19
17.05
16.91
16.77
16.64
16.51
16.38
16.26
16.15
16.04
15.93
15.84
15.75
15.67
15.6
15.54
15.49
15.45
15.41
15.39
15.36
15.35
15.34
15.34
15.34
15.35
15.37
15.38
15.41
15.43
15.46
15.5
15.54
15.58
15.62
15.67
15.72
15.78
15.83
15.89
15.96
16.02
16.09
16.17
16.24
16.32
16.41
16.49
16.59
16.68
16.78
16.89
17
17.11
17.23
17.36
17.5
17.65
17.8
17.96
18.14
18.32
18.52
18.73
18.96
19.2
19.46
19.74
20.05
20.38
20.73
21.12
21.54
21.97
22.42
22.88
23.34
23.81
21.04
21.04
21.04
21.04
21.04
21.04
21.04
21.03
21.02
21.01
21.01
21
21
20.99
20.99
20.99
20.98
20.98
20.98
20.97
20.94
20.91
20.88
20.85
20.82
20.8
20.79
20.78
20.77
20.77
20.78
20.78
20.79
20.81
20.82
20.84
20.85
20.87
20.88
20.89
20.89
20.89
20.89
20.88
20.87
20.85
20.82
20.79
20.74
20.7
20.64
20.58
20.51
20.44
20.36
20.28
20.19
20.09
19.99
19.89
19.78
19.67
19.56
19.44
19.32
19.19
19.07
18.94
18.81
18.68
18.55
18.41
18.28
18.14
18.01
17.87
17.73
17.59
17.45
17.3
17.16
17.02
16.87
16.73
16.6
16.46
16.33
16.21
16.09
15.97
15.86
15.76
15.67
15.58
15.5
15.43
15.38
15.33
15.29
15.26
15.24
15.23
15.22
15.22
15.23
15.24
15.26
15.28
15.31
15.34
15.38
15.43
15.47
15.52
15.58
15.63
15.7
15.76
15.83
15.9
15.98
16.05
16.13
16.22
16.31
16.4
16.49
16.59
16.7
16.8
16.91
17.03
17.15
17.28
17.41
17.55
17.7
17.85
18.01
18.18
18.36
18.55
18.76
18.97
19.2
19.44
19.7
19.97
20.26
20.58
20.92
21.29
21.68
22.1
22.53
22.96
23.4
23.83
24.27
24.7
20.92
20.92
20.93
20.93
20.93
20.95
20.98
21
21
21
20.99
20.99
20.99
20.98
20.98
20.97
20.97
20.96
20.95
20.92
20.88
20.83
20.79
20.76
20.73
20.7
20.69
20.67
20.67
20.67
20.67
20.67
20.68
20.69
20.7
20.71
20.73
20.74
20.75
20.76
20.77
20.77
20.77
20.76
20.74
20.72
20.69
20.65
20.61
20.56
20.5
20.43
20.36
20.27
20.19
20.1
20
19.9
19.79
19.68
19.57
19.45
19.33
19.2
19.08
18.95
18.82
18.68
18.55
18.41
18.28
18.14
18
17.86
17.72
17.58
17.44
17.3
17.15
17.01
16.87
16.72
16.58
16.44
16.31
16.17
16.05
15.93
15.81
15.71
15.61
15.51
15.43
15.35
15.29
15.23
15.19
15.16
15.13
15.12
15.11
15.12
15.12
15.14
15.16
15.19
15.23
15.27
15.31
15.36
15.42
15.47
15.54
15.61
15.68
15.75
15.83
15.91
16
16.09
16.18
16.28
16.38
16.48
16.59
16.7
16.82
16.93
17.06
17.18
17.32
17.45
17.6
17.75
17.9
18.06
18.23
18.41
18.6
18.79
19
19.22
19.45
19.69
19.94
20.21
20.5
20.8
21.13
21.48
21.85
22.25
22.66
23.08
23.5
23.91
24.32
24.72
25.13
25.54
20.79
20.79
20.8
20.8
20.82
20.86
20.91
20.95
20.97
20.98
20.98
20.97
20.97
20.96
20.96
20.95
20.95
20.93
20.91
20.87
20.81
20.76
20.71
20.68
20.64
20.62
20.6
20.58
20.57
20.57
20.57
20.57
20.57
20.58
20.59
20.6
20.61
20.62
20.63
20.64
20.65
20.65
20.64
20.63
20.61
20.59
20.56
20.52
20.47
20.41
20.35
20.27
20.2
20.11
20.01
19.91
19.81
19.7
19.58
19.47
19.35
19.22
19.1
18.97
18.84
18.7
18.57
18.43
18.29
18.15
18.01
17.88
17.74
17.6
17.45
17.31
17.17
17.02
16.87
16.73
16.58
16.44
16.3
16.17
16.03
15.91
15.79
15.67
15.57
15.47
15.37
15.29
15.22
15.16
15.11
15.07
15.04
15.02
15.02
15.02
15.03
15.05
15.07
15.1
15.14
15.19
15.24
15.3
15.36
15.43
15.5
15.58
15.66
15.74
15.83
15.93
16.03
16.13
16.23
16.34
16.45
16.57
16.69
16.81
16.94
17.07
17.2
17.34
17.48
17.63
17.78
17.94
18.11
18.28
18.46
18.64
18.83
19.03
19.24
19.47
19.7
19.94
20.19
20.46
20.74
21.04
21.35
21.68
22.04
22.42
22.82
23.22
23.63
24.02
24.41
24.8
25.18
25.56
25.94
26.33
20.65
20.65
20.66
20.67
20.69
20.74
20.82
20.89
20.93
20.95
20.95
20.95
20.95
20.94
20.94
20.93
20.92
20.9
20.86
20.8
20.74
20.68
20.64
20.6
20.57
20.54
20.52
20.5
20.49
20.48
20.48
20.48
20.48
20.48
20.48
20.49
20.5
20.51
20.52
20.52
20.53
20.52
20.51
20.5
20.48
20.45
20.42
20.37
20.32
20.26
20.2
20.12
20.03
19.94
19.84
19.73
19.62
19.5
19.38
19.25
19.13
19
18.86
18.73
18.59
18.46
18.32
18.18
18.04
17.9
17.76
17.62
17.47
17.33
17.19
17.04
16.9
16.75
16.61
16.46
16.32
16.18
16.04
15.91
15.79
15.66
15.55
15.44
15.34
15.25
15.17
15.1
15.04
14.99
14.96
14.93
14.92
14.92
14.93
14.95
14.98
15.02
15.06
15.11
15.17
15.23
15.3
15.37
15.46
15.54
15.63
15.73
15.83
15.93
16.04
16.16
16.27
16.39
16.52
16.64
16.78
16.91
17.05
17.19
17.34
17.49
17.65
17.8
17.97
18.14
18.31
18.49
18.67
18.87
19.06
19.27
19.49
19.71
19.94
20.19
20.44
20.71
20.98
21.27
21.58
21.9
22.24
22.6
22.98
23.37
23.77
24.16
24.54
24.9
25.27
25.63
25.99
26.35
26.71
27.06
20.52
20.52
20.52
20.54
20.56
20.62
20.71
20.8
20.87
20.91
20.92
20.92
20.92
20.91
20.91
20.9
20.88
20.85
20.8
20.73
20.67
20.61
20.57
20.53
20.5
20.48
20.46
20.44
20.43
20.41
20.41
20.4
20.39
20.39
20.39
20.39
20.4
20.4
20.41
20.41
20.41
20.4
20.39
20.38
20.35
20.32
20.28
20.24
20.18
20.12
20.05
19.96
19.87
19.77
19.67
19.55
19.43
19.3
19.17
19.04
18.91
18.77
18.63
18.49
18.35
18.21
18.07
17.93
17.78
17.64
17.5
17.36
17.22
17.08
16.94
16.79
16.64
16.5
16.36
16.21
16.08
15.94
15.81
15.68
15.56
15.44
15.33
15.23
15.14
15.06
14.99
14.93
14.89
14.86
14.84
14.84
14.84
14.86
14.89
14.93
14.97
15.03
15.09
15.15
15.23
15.31
15.4
15.5
15.6
15.7
15.81
15.93
16.05
16.17
16.3
16.43
16.57
16.71
16.85
17
17.15
17.31
17.47
17.63
17.8
17.97
18.14
18.32
18.5
18.69
18.88
19.08
19.29
19.5
19.72
19.95
20.18
20.43
20.68
20.95
21.22
21.51
21.81
22.12
22.45
22.79
23.15
23.53
23.92
24.3
24.68
25.04
25.38
25.72
26.06
26.4
26.74
27.07
27.4
27.72
20.38
20.38
20.39
20.4
20.42
20.49
20.58
20.7
20.79
20.84
20.87
20.88
20.88
20.87
20.86
20.85
20.83
20.79
20.73
20.66
20.6
20.55
20.51
20.48
20.45
20.42
20.4
20.38
20.37
20.35
20.34
20.33
20.32
20.32
20.31
20.31
20.31
20.31
20.31
20.31
20.31
20.3
20.28
20.26
20.24
20.2
20.16
20.11
20.05
19.98
19.91
19.82
19.72
19.61
19.5
19.38
19.25
19.11
18.97
18.83
18.69
18.55
18.4
18.26
18.11
17.97
17.82
17.68
17.54
17.4
17.26
17.12
16.98
16.84
16.69
16.55
16.41
16.26
16.12
15.98
15.85
15.72
15.59
15.47
15.35
15.24
15.14
15.05
14.97
14.9
14.84
14.8
14.77
14.75
14.75
14.77
14.8
14.84
14.88
14.94
15
15.07
15.15
15.24
15.33
15.44
15.54
15.66
15.78
15.91
16.04
16.17
16.31
16.46
16.6
16.76
16.91
17.07
17.24
17.4
17.57
17.75
17.93
18.11
18.29
18.48
18.68
18.87
19.08
19.28
19.5
19.71
19.94
20.17
20.41
20.66
20.91
21.17
21.45
21.73
22.02
22.33
22.65
22.98
23.33
23.69
24.06
24.44
24.81
25.17
25.51
25.83
26.16
26.47
26.79
27.11
27.42
27.72
28.02
28.29
20.24
20.24
20.24
20.25
20.27
20.34
20.44
20.57
20.68
20.76
20.8
20.82
20.82
20.82
20.81
20.79
20.77
20.72
20.66
20.59
20.53
20.49
20.45
20.42
20.4
20.38
20.35
20.33
20.32
20.3
20.28
20.27
20.26
20.25
20.24
20.24
20.23
20.23
20.23
20.22
20.22
20.2
20.19
20.16
20.13
20.1
20.05
20
19.93
19.86
19.78
19.68
19.58
19.46
19.34
19.21
19.07
18.93
18.78
18.63
18.48
18.33
18.18
18.03
17.88
17.73
17.59
17.45
17.31
17.17
17.03
16.89
16.75
16.61
16.47
16.33
16.18
16.05
15.91
15.77
15.64
15.52
15.39
15.28
15.17
15.07
14.97
14.89
14.82
14.76
14.72
14.69
14.68
14.68
14.7
14.74
14.79
14.84
14.9
14.98
15.06
15.15
15.25
15.36
15.47
15.6
15.73
15.86
16.01
16.15
16.3
16.46
16.62
16.78
16.95
17.12
17.3
17.48
17.66
17.85
18.04
18.23
18.43
18.63
18.83
19.04
19.25
19.46
19.68
19.91
20.14
20.38
20.62
20.87
21.12
21.38
21.66
21.94
22.23
22.53
22.84
23.16
23.49
23.84
24.2
24.56
24.93
25.28
25.62
25.94
26.25
26.56
26.86
27.16
27.45
27.74
28.02
28.28
28.54
28.78
20.09
20.09
20.09
20.1
20.12
20.17
20.28
20.42
20.55
20.65
20.71
20.74
20.75
20.75
20.74
20.72
20.69
20.65
20.59
20.52
20.47
20.43
20.4
20.37
20.35
20.33
20.31
20.29
20.27
20.25
20.23
20.22
20.2
20.19
20.18
20.17
20.16
20.16
20.15
20.14
20.13
20.12
20.1
20.08
20.05
20.01
19.96
19.9
19.83
19.75
19.66
19.56
19.45
19.32
19.19
19.05
18.91
18.76
18.6
18.44
18.29
18.13
17.97
17.82
17.66
17.51
17.37
17.23
17.09
16.96
16.82
16.68
16.54
16.4
16.26
16.12
15.98
15.85
15.71
15.58
15.45
15.33
15.21
15.1
15
14.91
14.82
14.75
14.69
14.65
14.62
14.61
14.62
14.64
14.69
14.74
14.8
14.88
14.96
15.05
15.15
15.26
15.38
15.51
15.65
15.8
15.95
16.11
16.27
16.44
16.61
16.78
16.96
17.14
17.33
17.52
17.72
17.91
18.12
18.32
18.53
18.74
18.96
19.17
19.39
19.62
19.85
20.08
20.32
20.56
20.8
21.05
21.31
21.58
21.85
22.12
22.41
22.7
23.01
23.32
23.65
23.98
24.32
24.67
25.03
25.37
25.71
26.03
26.34
26.64
26.92
27.21
27.49
27.76
28.03
28.28
28.52
28.75
28.97
29.18
19.94
19.94
19.94
19.94
19.95
20
20.1
20.24
20.39
20.52
20.6
20.64
20.66
20.66
20.66
20.64
20.61
20.57
20.52
20.46
20.41
20.38
20.35
20.33
20.3
20.28
20.26
20.24
20.22
20.2
20.18
20.16
20.15
20.13
20.12
20.11
20.1
20.09
20.08
20.07
20.06
20.05
20.03
20
19.97
19.92
19.87
19.81
19.73
19.65
19.55
19.44
19.32
19.19
19.05
18.91
18.75
18.59
18.43
18.26
18.1
17.93
17.77
17.61
17.46
17.31
17.16
17.03
16.89
16.76
16.62
16.48
16.34
16.2
16.06
15.93
15.79
15.66
15.53
15.4
15.28
15.16
15.05
14.95
14.85
14.76
14.69
14.63
14.59
14.56
14.55
14.56
14.59
14.63
14.69
14.77
14.85
14.94
15.04
15.15
15.27
15.41
15.55
15.71
15.87
16.04
16.21
16.39
16.57
16.75
16.94
17.14
17.33
17.54
17.74
17.95
18.17
18.38
18.6
18.83
19.05
19.28
19.51
19.75
19.98
20.22
20.47
20.71
20.96
21.22
21.48
21.74
22.01
22.29
22.57
22.86
23.16
23.46
23.78
24.1
24.43
24.76
25.1
25.44
25.77
26.09
26.4
26.69
26.97
27.25
27.52
27.78
28.03
28.28
28.51
28.73
28.94
29.15
29.34
29.52
19.78
19.79
19.78
19.77
19.78
19.82
19.92
20.06
20.22
20.36
20.46
20.52
20.55
20.56
20.56
20.54
20.52
20.49
20.44
20.39
20.36
20.33
20.3
20.28
20.26
20.24
20.22
20.19
20.17
20.15
20.13
20.11
20.09
20.08
20.06
20.05
20.03
20.02
20.01
20
19.99
19.97
19.95
19.93
19.89
19.85
19.79
19.72
19.65
19.55
19.45
19.34
19.21
19.07
18.92
18.77
18.6
18.43
18.26
18.09
17.92
17.75
17.58
17.42
17.27
17.12
16.97
16.84
16.7
16.57
16.43
16.29
16.15
16.02
15.88
15.75
15.62
15.49
15.36
15.24
15.12
15.01
14.9
14.8
14.71
14.64
14.57
14.53
14.5
14.49
14.5
14.53
14.58
14.65
14.73
14.82
14.92
15.03
15.15
15.29
15.43
15.59
15.76
15.94
16.12
16.31
16.5
16.7
16.9
17.1
17.31
17.52
17.74
17.96
18.18
18.41
18.64
18.88
19.11
19.35
19.6
19.84
20.09
20.33
20.59
20.84
21.09
21.35
21.61
21.88
22.15
22.42
22.7
22.99
23.28
23.58
23.88
24.19
24.51
24.83
25.15
25.48
25.8
26.12
26.42
26.71
26.99
27.27
27.53
27.78
28.03
28.27
28.5
28.71
28.92
29.12
29.3
29.48
29.65
29.82
19.63
19.63
19.62
19.6
19.6
19.63
19.72
19.85
20.02
20.18
20.31
20.38
20.42
20.44
20.45
20.44
20.42
20.4
20.36
20.33
20.3
20.27
20.25
20.23
20.21
20.19
20.17
20.15
20.12
20.1
20.08
20.06
20.04
20.02
20
19.99
19.97
19.96
19.95
19.93
19.92
19.9
19.88
19.86
19.82
19.77
19.72
19.65
19.56
19.47
19.36
19.23
19.1
18.95
18.8
18.63
18.45
18.28
18.1
17.92
17.74
17.57
17.4
17.24
17.09
16.94
16.8
16.66
16.53
16.39
16.26
16.12
15.98
15.85
15.72
15.59
15.46
15.33
15.21
15.09
14.98
14.87
14.76
14.67
14.59
14.52
14.47
14.44
14.43
14.44
14.48
14.53
14.6
14.68
14.78
14.89
15.02
15.15
15.3
15.46
15.64
15.82
16.01
16.21
16.41
16.62
16.83
17.04
17.25
17.47
17.7
17.93
18.17
18.4
18.65
18.89
19.14
19.39
19.65
19.9
20.16
20.42
20.68
20.94
21.2
21.46
21.72
21.99
22.26
22.53
22.81
23.09
23.37
23.66
23.95
24.25
24.56
24.87
25.18
25.49
25.8
26.11
26.41
26.7
26.98
27.25
27.52
27.77
28.01
28.25
28.47
28.69
28.89
29.08
29.27
29.44
29.61
29.77
29.93
30.08
19.46
19.46
19.45
19.43