/*--------------------------------*- C++ -*----------------------------------*\
| =========                 |                                                 |
| \\      /  F ield         | OpenFOAM: The Open Source CFD Toolbox           |
|  \\    /   O peration     | Version:  5.x                                   |
|   \\  /    A nd           | Web:      www.OpenFOAM.org                      |
|    \\/     M anipulation  |                                                 |
\*---------------------------------------------------------------------------*/
FoamFile
{
    version     2.0;
    format      ascii;
    class       volScalarField;
    location    "95";
    object      gamma;
}
// * * * * * * * * * * * * * * * * * * * * * * * * * * * * * * * * * * * * * //

dimensions      [0 0 0 0 0 0 0];

internalField   nonuniform List<scalar> 
86400
(
4.231e-05
5.336e-05
7.994e-05
0.0001414
0.0002751
0.0004494
0.0006188
0.0008623
0.001363
0.002115
0.003446
0.004826
0.006381
0.006907
0.008014
0.008973
0.011
0.01108
0.009878
0.007924
0.006775
0.006231
0.006763
0.00719
0.007418
0.00876
0.008466
0.008084
0.007288
0.006811
0.006433
0.00673
0.007156
0.007648
0.008265
0.009712
0.01004
0.009683
0.008217
0.007802
0.007343
0.007951
0.007859
0.006841
0.006365
0.006544
0.007529
0.008281
0.009055
0.008693
0.008685
0.008937
0.009323
0.009875
0.01028
0.01126
0.01236
0.01286
0.01274
0.01251
0.01151
0.01155
0.01121
0.01154
0.01309
0.01557
0.01723
0.01875
0.01788
0.01759
0.01947
0.02313
0.02677
0.02946
0.03194
0.03575
0.03877
0.04431
0.04925
0.05484
0.05986
0.06573
0.07018
0.0767
0.08251
0.08564
0.08802
0.08689
0.08643
0.08365
0.07512
0.07188
0.06977
0.07223
0.07084
0.06787
0.05939
0.05422
0.05043
0.04697
0.04356
0.03797
0.03276
0.02674
0.02129
0.02004
0.02279
0.02766
0.02584
0.02039
0.01356
0.009655
0.008295
0.008085
0.007632
0.007124
0.006738
0.006454
0.006395
0.006392
0.006359
0.006239
0.006038
0.005734
0.005563
0.005522
0.005398
0.005251
0.005074
0.004821
0.004421
0.004696
0.005146
0.005785
0.006455
0.007252
0.007858
0.008583
0.005913
0.003152
0.00195
0.001622
0.002026
0.002621
0.002785
0.002165
0.002129
0.002252
0.00248
0.002681
0.002718
0.003056
0.004352
0.006043
0.007788
0.01001
0.01064
0.01391
0.1644
0.97
5.521e-05
6.25e-05
8.672e-05
0.0001401
0.0002753
0.0004559
0.0006203
0.000798
0.001038
0.001441
0.002438
0.003901
0.006051
0.00781
0.008419
0.008089
0.009268
0.01062
0.01148
0.01232
0.01178
0.01106
0.01145
0.01231
0.01292
0.01362
0.01328
0.01277
0.01223
0.01122
0.01061
0.01095
0.01162
0.01245
0.01344
0.01549
0.01646
0.01683
0.01577
0.01565
0.01499
0.01559
0.01553
0.0138
0.01207
0.0115
0.01145
0.01167
0.01239
0.01252
0.0131
0.01411
0.01545
0.01662
0.01566
0.01457
0.01362
0.0129
0.0124
0.0127
0.01193
0.01195
0.01151
0.01188
0.01368
0.01836
0.02221
0.0254
0.0247
0.02425
0.0256
0.02961
0.03248
0.03455
0.03566
0.04045
0.04696
0.05718
0.06481
0.07131
0.0755
0.08092
0.08906
0.0981
0.1065
0.1114
0.1159
0.1155
0.1177
0.1189
0.1146
0.1142
0.1117
0.106
0.0965
0.08505
0.07097
0.06204
0.05613
0.05117
0.0494
0.04865
0.04909
0.04474
0.03544
0.03058
0.03291
0.03889
0.04151
0.03695
0.02512
0.01775
0.01492
0.01477
0.01429
0.01377
0.0135
0.01343
0.01391
0.0145
0.01499
0.01514
0.01499
0.0144
0.01407
0.01403
0.01362
0.01311
0.0125
0.01181
0.01089
0.01157
0.01272
0.01512
0.01722
0.01796
0.01717
0.01603
0.01127
0.006823
0.005624
0.004985
0.005339
0.00656
0.007014
0.006255
0.006635
0.007574
0.008843
0.009206
0.008812
0.009109
0.01139
0.01718
0.02876
0.05402
0.09864
0.2536
0.5779
0.9401
8.66e-05
9.098e-05
0.0001165
0.0001662
0.0003038
0.000469
0.00059
0.0006934
0.0007658
0.001075
0.001885
0.003526
0.005719
0.008213
0.00782
0.007373
0.009097
0.01178
0.01269
0.01435
0.01299
0.0119
0.0128
0.01415
0.01396
0.01549
0.01672
0.01864
0.02132
0.02207
0.0211
0.02218
0.02155
0.01985
0.01787
0.01719
0.0166
0.01661
0.01534
0.01593
0.01679
0.01947
0.02101
0.02101
0.01884
0.01782
0.01722
0.01698
0.01759
0.01844
0.01738
0.01561
0.01415
0.01327
0.01175
0.01182
0.01154
0.01111
0.01103
0.01168
0.01163
0.01218
0.01258
0.0144
0.01685
0.02078
0.02451
0.02742
0.02651
0.02621
0.02641
0.02753
0.02877
0.03275
0.03848
0.05212
0.06803
0.08428
0.09374
0.1032
0.1081
0.114
0.1228
0.1326
0.1446
0.15
0.1565
0.1587
0.1505
0.136
0.1171
0.1025
0.08945
0.08784
0.08467
0.07986
0.07278
0.06715
0.05983
0.05508
0.0558
0.0594
0.06483
0.06161
0.05199
0.046
0.04653
0.0548
0.06275
0.05927
0.04567
0.03654
0.03108
0.03115
0.031
0.03106
0.02917
0.02643
0.0244
0.02307
0.02292
0.02377
0.02385
0.02309
0.02268
0.02267
0.02203
0.02118
0.01991
0.01887
0.0176
0.01842
0.01978
0.02212
0.02545
0.02683
0.02639
0.02508
0.02065
0.01586
0.01481
0.01413
0.01509
0.01738
0.01865
0.01711
0.01696
0.01805
0.02049
0.02161
0.02308
0.02536
0.03526
0.06141
0.1216
0.2924
0.5836
0.8134
0.9083
0.9785
0.0001645
0.0001668
0.0001859
0.0002233
0.0003427
0.0004469
0.0004757
0.0004841
0.0005013
0.000738
0.001147
0.00148
0.001677
0.002405
0.002451
0.003116
0.004763
0.005012
0.004184
0.003921
0.00316
0.002668
0.00365
0.004828
0.005054
0.006461
0.008531
0.01129
0.01602
0.02037
0.02022
0.02319
0.02355
0.02215
0.01937
0.01743
0.01613
0.01633
0.01508
0.01705
0.02085
0.02872
0.0387
0.04583
0.03589
0.02618
0.01813
0.01348
0.01182
0.01279
0.01133
0.009545
0.008954
0.008716
0.007895
0.008268
0.008113
0.00821
0.00931
0.01125
0.01232
0.01391
0.01558
0.01789
0.02072
0.02464
0.02697
0.02802
0.02675
0.02777
0.03077
0.0339
0.03895
0.04956
0.05585
0.0759
0.09484
0.1075
0.1082
0.1176
0.1194
0.122
0.1273
0.1304
0.1318
0.1321
0.1354
0.137
0.1348
0.1331
0.13
0.1254
0.1129
0.1121
0.1065
0.09924
0.09123
0.08518
0.07517
0.07169
0.07048
0.06996
0.07804
0.07533
0.06064
0.05168
0.04693
0.053
0.06256
0.06852
0.05645
0.04953
0.04305
0.04415
0.04634
0.05027
0.04921
0.04566
0.04182
0.03893
0.03756
0.03971
0.04029
0.0394
0.03899
0.03916
0.03832
0.03717
0.03584
0.03453
0.03305
0.03443
0.03705
0.04214
0.04466
0.04059
0.03414
0.02726
0.02454
0.02535
0.02778
0.02915
0.03122
0.03391
0.0389
0.04162
0.04509
0.05189
0.06454
0.07536
0.09618
0.1197
0.1739
0.3183
0.5814
0.7893
0.9111
0.9733
0.9924
0.9985
0.0003732
0.0004101
0.0004301
0.0004668
0.0005362
0.000499
0.0003751
0.0003607
0.0003807
0.0005516
0.0006639
0.0004986
0.0003349
0.0004592
0.0005803
0.00119
0.002748
0.002175
0.001177
0.0009735
0.0009018
0.0008164
0.001408
0.001797
0.001878
0.002961
0.00551
0.01078
0.01897
0.02311
0.01647
0.01402
0.01152
0.009986
0.009218
0.008381
0.007238
0.008292
0.009762
0.01455
0.01907
0.02315
0.02053
0.01768
0.01117
0.007644
0.004588
0.00368
0.00389
0.005726
0.006482
0.006834
0.00658
0.006853
0.00663
0.00719
0.0074
0.007956
0.01083
0.01524
0.01914
0.02342
0.02884
0.03298
0.03321
0.03011
0.02811
0.0244
0.02168
0.02282
0.02642
0.02873
0.03717
0.05157
0.06453
0.08286
0.1009
0.1054
0.1041
0.1173
0.1187
0.1178
0.1229
0.1298
0.1382
0.1485
0.1585
0.1585
0.1589
0.1598
0.1539
0.1565
0.1488
0.1518
0.1472
0.1478
0.1351
0.1258
0.1122
0.1015
0.08508
0.06703
0.06366
0.0613
0.0535
0.05563
0.05448
0.05421
0.05769
0.07052
0.06159
0.05865
0.05358
0.05602
0.05327
0.04977
0.04077
0.03249
0.02573
0.02445
0.02332
0.02446
0.02467
0.02443
0.0246
0.02516
0.02542
0.02556
0.02571
0.02581
0.02569
0.02572
0.02594
0.02799
0.02742
0.02479
0.02235
0.02105
0.02138
0.02572
0.03104
0.03523
0.03984
0.0471
0.06039
0.07203
0.08655
0.1032
0.1409
0.189
0.2975
0.4518
0.5989
0.7411
0.8603
0.9375
0.9772
0.9939
0.9986
0.9997
0.0007255
0.0009238
0.000973
0.001029
0.0008144
0.000555
0.0003314
0.000308
0.0003566
0.0005462
0.000552
0.0002432
9.792e-05
0.0001069
0.0002318
0.0006372
0.001624
0.001206
0.0006182
0.0005741
0.0007368
0.0007904
0.001516
0.001068
0.0006903
0.0007434
0.001259
0.002711
0.006824
0.007923
0.005061
0.003929
0.003295
0.003149
0.003887
0.004057
0.003119
0.003181
0.003698
0.004202
0.003709
0.003384
0.002027
0.001331
0.0007977
0.0003975
0.0001296
9.536e-05
0.0001147
0.0002276
0.0003585
0.0006116
0.0009212
0.001264
0.001495
0.001526
0.001449
0.001863
0.004303
0.009413
0.01615
0.02094
0.02136
0.02195
0.02092
0.01816
0.02091
0.02217
0.02135
0.02471
0.03221
0.03523
0.04708
0.06473
0.07603
0.08975
0.1027
0.1127
0.1245
0.155
0.1723
0.1825
0.1943
0.211
0.2305
0.2523
0.2716
0.2689
0.2734
0.2863
0.3016
0.2915
0.2598
0.24
0.2167
0.1998
0.1711
0.1501
0.129
0.1213
0.1074
0.08729
0.07999
0.07355
0.06091
0.05759
0.04427
0.03995
0.03935
0.04133
0.03363
0.03143
0.02885
0.03011
0.0272
0.02438
0.01955
0.01585
0.01315
0.0129
0.01208
0.01213
0.01198
0.012
0.01226
0.01273
0.01339
0.01428
0.0154
0.01663
0.01761
0.01837
0.01951
0.02252
0.02348
0.0236
0.0221
0.02336
0.0259
0.03358
0.04198
0.05045
0.06187
0.07979
0.112
0.151
0.2096
0.3
0.4419
0.5719
0.6941
0.782
0.8552
0.9141
0.9577
0.9826
0.9942
0.9983
0.9995
0.9999
0.001216
0.001766
0.001827
0.001759
0.001155
0.0007016
0.0003891
0.0004256
0.0006538
0.0009974
0.0007385
0.000242
6.015e-05
5.739e-05
9.907e-05
0.0003595
0.001227
0.001462
0.001029
0.001297
0.002118
0.002164
0.003216
0.00125
0.0005573
0.0004205
0.0005972
0.001116
0.00323
0.003733
0.002386
0.00157
0.001469
0.001746
0.002402
0.002383
0.00145
0.001223
0.001595
0.001721
0.001101
0.0006207
0.0002134
9.369e-05
5.268e-05
1.676e-05
4.025e-06
2.73e-06
3.591e-06
9.842e-06
2.067e-05
4.238e-05
7.814e-05
0.0001337
0.0001783
0.0001834
0.0001889
0.0003093
0.001167
0.003661
0.009463
0.01528
0.01659
0.01922
0.02163
0.01889
0.02393
0.0279
0.02975
0.03341
0.0489
0.0516
0.07059
0.09702
0.1176
0.1426
0.1691
0.1884
0.2032
0.2414
0.2743
0.3076
0.3465
0.3762
0.4147
0.4338
0.4442
0.4312
0.4551
0.483
0.4869
0.4936
0.4895
0.4806
0.4624
0.4407
0.3611
0.2855
0.223
0.2053
0.1811
0.1461
0.1446
0.1285
0.09699
0.0808
0.05877
0.04031
0.03547
0.0338
0.02816
0.02637
0.02456
0.02477
0.02125
0.0179
0.01309
0.01085
0.009453
0.009798
0.009472
0.009394
0.009302
0.009419
0.009772
0.01031
0.01105
0.01209
0.01358
0.01542
0.01735
0.01928
0.02172
0.02634
0.02966
0.03525
0.04356
0.05545
0.07115
0.09976
0.1298
0.1679
0.2237
0.3096
0.4418
0.5534
0.6498
0.7272
0.7896
0.8417
0.885
0.9233
0.9564
0.9779
0.9904
0.9962
0.9985
0.9994
0.9997
0.9999
0.002371
0.003394
0.003075
0.002716
0.001765
0.001055
0.0006471
0.000884
0.001178
0.001184
0.0007799
0.0002362
5.863e-05
5.509e-05
9.635e-05
0.0003413
0.001299
0.002505
0.003341
0.006726
0.01009
0.009472
0.01086
0.004192
0.001543
0.0006434
0.000708
0.0009229
0.002092
0.002444
0.001816
0.001696
0.00172
0.002143
0.002641
0.002347
0.001319
0.001208
0.001827
0.001268
0.000536
0.0001655
4.862e-05
1.637e-05
1.059e-05
2.737e-06
6.054e-07
4.134e-07
6.283e-07
1.89e-06
4.708e-06
1.253e-05
3.359e-05
7.813e-05
0.0001067
6.986e-05
4.748e-05
6.009e-05
0.0002179
0.0008691
0.00358
0.008906
0.01278
0.01808
0.02296
0.02333
0.03202
0.04096
0.04556
0.05593
0.08374
0.09863
0.1306
0.1709
0.2037
0.2295
0.2585
0.3221
0.3761
0.4301
0.452
0.4776
0.5113
0.5411
0.5814
0.6065
0.6235
0.6149
0.6404
0.6736
0.6961
0.7289
0.7516
0.7593
0.7505
0.7295
0.6637
0.582
0.4859
0.4268
0.3782
0.3736
0.3561
0.2716
0.1725
0.1207
0.09511
0.0705
0.06265
0.05039
0.03873
0.03336
0.03207
0.0317
0.02639
0.0212
0.01763
0.01592
0.0154
0.01736
0.01793
0.01779
0.01781
0.01823
0.01907
0.02027
0.02202
0.02463
0.02879
0.03476
0.0424
0.05156
0.06294
0.07955
0.09649
0.1207
0.1566
0.2071
0.2792
0.3976
0.5006
0.5901
0.6675
0.7316
0.7882
0.8402
0.8846
0.9174
0.9401
0.9562
0.9696
0.9819
0.991
0.9958
0.9982
0.9992
0.9996
0.9998
0.9999
0.9999
0.004386
0.005603
0.004495
0.003683
0.002302
0.001419
0.001129
0.001273
0.001161
0.0008998
0.0004841
0.000206
0.0001089
0.0001353
0.0002604
0.0006732
0.001414
0.00259
0.003896
0.005601
0.009018
0.01188
0.01873
0.01268
0.006442
0.003132
0.001986
0.001952
0.002905
0.003339
0.002839
0.003404
0.003191
0.003549
0.002997
0.001884
0.000814
0.0008936
0.001304
0.0005907
0.0001928
4.967e-05
1.656e-05
6.717e-06
6.644e-06
2.573e-06
9.708e-07
7.695e-07
1.19e-06
1.726e-06
3.074e-06
6.164e-06
1.427e-05
3.174e-05
4.732e-05
3.456e-05
2.137e-05
2.363e-05
6.751e-05
0.0003097
0.001921
0.007155
0.01466
0.02296
0.03113
0.0328
0.04596
0.06737
0.07674
0.09167
0.1209
0.1379
0.172
0.238
0.3227
0.4334
0.5167
0.6052
0.6439
0.6543
0.6597
0.679
0.7106
0.7421
0.7808
0.8032
0.8212
0.8243
0.8297
0.8327
0.8337
0.8485
0.873
0.8932
0.9027
0.9004
0.875
0.829
0.7609
0.7069
0.6795
0.6843
0.6681
0.594
0.4914
0.3625
0.2856
0.2239
0.1872
0.1252
0.09826
0.08407
0.08268
0.08004
0.07244
0.06332
0.05462
0.0472
0.04275
0.04186
0.041
0.0417
0.04249
0.04378
0.04587
0.04897
0.05419
0.06269
0.07718
0.09992
0.1328
0.1767
0.2327
0.3058
0.4124
0.526
0.6265
0.7068
0.7636
0.8068
0.8435
0.8766
0.904
0.9254
0.9419
0.9569
0.9695
0.9787
0.9847
0.9886
0.9927
0.9961
0.9982
0.9992
0.9996
0.9997
0.9998
0.9999
0.9999
0.9999
0.006039
0.006631
0.005331
0.00429
0.002745
0.001835
0.00128
0.0009847
0.000672
0.0004784
0.0002565
0.0001889
0.0002059
0.0003562
0.0007798
0.001394
0.002625
0.002736
0.002836
0.002338
0.00315
0.00512
0.01163
0.01662
0.01394
0.007898
0.003885
0.00332
0.003166
0.004137
0.005068
0.007682
0.007347
0.007223
0.003623
0.001785
0.000979
0.001167
0.001071
0.0003145
8.419e-05
2.074e-05
9.577e-06
6.948e-06
8.367e-06
4.538e-06
3.402e-06
3.711e-06
3.774e-06
2.998e-06
2.885e-06
3.304e-06
8.278e-06
2.459e-05
4.356e-05
4.017e-05
3.173e-05
3.225e-05
6.751e-05
0.0003061
0.001732
0.007803
0.01773
0.03161
0.04727
0.05585
0.06975
0.1071
0.1288
0.169
0.2279
0.305
0.4196
0.5506
0.6164
0.6734
0.7171
0.763
0.7853
0.7903
0.7954
0.8078
0.8312
0.8539
0.879
0.8969
0.9082
0.9124
0.9151
0.9153
0.9216
0.9364
0.9544
0.9644
0.9686
0.9654
0.9536
0.9318
0.9018
0.874
0.86
0.8557
0.8376
0.7893
0.7173
0.657
0.6244
0.5867
0.5383
0.4048
0.3054
0.2455
0.2253
0.1887
0.1776
0.1791
0.1812
0.1769
0.1717
0.1568
0.1541
0.1653
0.1751
0.1848
0.2048
0.2369
0.2873
0.3617
0.4511
0.5331
0.6126
0.6795
0.7284
0.7659
0.8
0.8347
0.8673
0.8962
0.9168
0.9333
0.9473
0.9606
0.9712
0.979
0.9843
0.9885
0.9918
0.9942
0.9957
0.9967
0.998
0.999
0.9996
0.9998
0.9999
0.9999
0.9999
0.9999
0.9999
0.9999
0.006542
0.006561
0.005779
0.005245
0.003636
0.001603
0.0006115
0.0003058
0.0001736
0.0001512
0.0001542
0.000201
0.0004299
0.001104
0.001893
0.002983
0.003511
0.002074
0.00156
0.0009169
0.001175
0.001802
0.005976
0.01517
0.02115
0.01604
0.01212
0.009058
0.006193
0.006739
0.006637
0.007187
0.005283
0.004219
0.00214
0.001108
0.0008314
0.001383
0.001021
0.0003234
6.834e-05
2.002e-05
7.414e-06
5.299e-06
4.957e-06
5.491e-06
1.382e-05
2.629e-05
2.729e-05
1.192e-05
4.104e-06
2.419e-06
6.162e-06
2.98e-05
9.782e-05
0.0001975
0.0002228
0.0002061
0.000321
0.001242
0.005353
0.01895
0.04402
0.07952
0.1071
0.1235
0.1415
0.2
0.2514
0.3369
0.4251
0.5646
0.6588
0.7425
0.7809
0.8111
0.8368
0.8598
0.8737
0.8795
0.8862
0.8997
0.916
0.9301
0.9438
0.9541
0.9603
0.9644
0.9673
0.97
0.9755
0.9823
0.9876
0.9898
0.9903
0.9876
0.9819
0.9723
0.9614
0.9485
0.9389
0.9305
0.9171
0.8978
0.8815
0.867
0.8559
0.8389
0.8114
0.7619
0.7177
0.6751
0.6427
0.5877
0.5608
0.5511
0.5529
0.54
0.5252
0.5033
0.5076
0.54
0.562
0.5797
0.6123
0.6548
0.7002
0.7453
0.7874
0.823
0.8569
0.8852
0.9042
0.9183
0.9309
0.9438
0.9568
0.9682
0.9758
0.9812
0.9853
0.989
0.9919
0.9941
0.9956
0.9967
0.9976
0.9982
0.9986
0.9988
0.9992
0.9996
0.9998
0.9999
0.9999
0.9999
0.9999
0.9999
0.9999
0.9999
0.006413
0.00628
0.005569
0.004992
0.003279
0.001309
0.0003626
0.0001516
7.608e-05
0.0001123
0.000178
0.0005355
0.0015
0.002785
0.004042
0.005863
0.004831
0.002958
0.001737
0.0008295
0.001017
0.001948
0.007108
0.01736
0.02593
0.02115
0.01939
0.01471
0.01131
0.01061
0.009723
0.008132
0.005003
0.00301
0.002049
0.001295
0.00121
0.002177
0.001143
0.000319
6.043e-05
1.308e-05
3.834e-06
2.881e-06
2.054e-06
3.532e-06
1.291e-05
4.632e-05
5.051e-05
2.059e-05
4.778e-06
2.81e-06
8.743e-06
6.315e-05
0.0003157
0.0007497
0.001101
0.001343
0.002204
0.006716
0.01732
0.04071
0.07422
0.116
0.1475
0.2035
0.2529
0.3802
0.4978
0.5974
0.6732
0.7507
0.8053
0.8476
0.8638
0.8773
0.8922
0.9085
0.9247
0.9368
0.9471
0.957
0.9651
0.9721
0.9779
0.982
0.9851
0.9881
0.9903
0.9921
0.994
0.9953
0.996
0.9957
0.9945
0.9912
0.9867
0.9812
0.9762
0.9705
0.9665
0.9626
0.9571
0.9508
0.9463
0.9415
0.9395
0.9368
0.9282
0.9136
0.8965
0.8732
0.848
0.8147
0.7911
0.7812
0.7794
0.7769
0.7799
0.7775
0.7863
0.8066
0.8214
0.8337
0.8518
0.8735
0.895
0.9134
0.9293
0.9418
0.9533
0.9638
0.9711
0.9764
0.9809
0.985
0.9887
0.9917
0.9937
0.9951
0.9961
0.9969
0.9976
0.9982
0.9986
0.9989
0.9991
0.9993
0.9994
0.9994
0.9996
0.9997
0.9998
0.9999
0.9999
0.9999
0.9999
0.9999
0.9999
0.9997
0.005505
0.005447
0.004473
0.003407
0.002141
0.0009436
0.0002748
0.0001313
0.0001195
0.0002197
0.0005207
0.001808
0.003407
0.005185
0.006216
0.00652
0.005116
0.003384
0.001785
0.0008936
0.001035
0.002064
0.006208
0.01296
0.02016
0.01858
0.02147
0.01904
0.0177
0.01594
0.01519
0.01133
0.007695
0.005461
0.003768
0.002654
0.002645
0.003978
0.001678
0.0005472
0.0001264
2.963e-05
6.583e-06
5.134e-06
3.295e-06
6.888e-06
3.262e-05
0.0001566
0.0001498
6.711e-05
1.141e-05
5.315e-06
1.331e-05
0.0001058
0.0005115
0.001677
0.003832
0.006115
0.01329
0.03544
0.06369
0.09969
0.1332
0.1826
0.2544
0.3851
0.4923
0.6132
0.6986
0.7625
0.8108
0.8459
0.8716
0.8915
0.9017
0.9147
0.9282
0.9424
0.9551
0.9662
0.9753
0.9814
0.9851
0.9875
0.9889
0.9899
0.9914
0.9937
0.9957
0.997
0.9978
0.998
0.9977
0.9969
0.9954
0.9926
0.9895
0.9867
0.9849
0.9826
0.981
0.9791
0.9778
0.9765
0.9753
0.9727
0.9707
0.9686
0.966
0.9628
0.9577
0.9482
0.9366
0.9219
0.9113
0.9078
0.9074
0.9092
0.914
0.9182
0.9255
0.9352
0.9423
0.9475
0.9539
0.9611
0.9685
0.9753
0.9808
0.9848
0.988
0.9906
0.9925
0.9939
0.9951
0.9961
0.9969
0.9977
0.9982
0.9985
0.9987
0.9989
0.9991
0.9993
0.9994
0.9995
0.9995
0.9996
0.9996
0.9996
0.9996
0.9997
0.9997
0.9998
0.9999
0.9999
0.9999
0.9998
0.9997
0.9994
0.005193
0.00499
0.004002
0.002582
0.001554
0.0009372
0.0003921
0.0003236
0.0003455
0.0006834
0.001449
0.003678
0.004547
0.005293
0.004995
0.00477
0.004061
0.002711
0.00163
0.001172
0.001499
0.002835
0.005625
0.008957
0.01068
0.01005
0.01288
0.0126
0.01361
0.01548
0.01718
0.01528
0.01307
0.009458
0.006141
0.004084
0.003462
0.004614
0.002908
0.001622
0.0005744
0.0001848
4.897e-05
3.757e-05
2.519e-05
4.969e-05
0.0001665
0.0007066
0.0007752
0.0004748
0.0001081
6.476e-05
0.0001366
0.0006225
0.002263
0.006693
0.01444
0.02577
0.05108
0.1018
0.1433
0.1844
0.2511
0.389
0.5179
0.6204
0.6932
0.7552
0.8051
0.8434
0.8748
0.8953
0.9076
0.9162
0.9241
0.9337
0.9434
0.9549
0.9669
0.9772
0.9842
0.9891
0.9917
0.9931
0.9939
0.9939
0.9939
0.995
0.9964
0.9973
0.9979
0.998
0.9975
0.9962
0.9946
0.992
0.9901
0.9894
0.9895
0.989
0.9883
0.9875
0.9874
0.9871
0.9866
0.9852
0.9842
0.9832
0.9837
0.9831
0.9815
0.978
0.9737
0.9687
0.9641
0.9611
0.9599
0.9615
0.9656
0.9704
0.975
0.9796
0.983
0.9856
0.988
0.9901
0.9919
0.9936
0.995
0.996
0.9967
0.9973
0.9978
0.9982
0.9985
0.9987
0.9989
0.9991
0.9992
0.9993
0.9994
0.9995
0.9995
0.9996
0.9996
0.9996
0.9996
0.9997
0.9997
0.9996
0.9996
0.9996
0.9997
0.9997
0.9998
0.9998
0.9998
0.9997
0.9995
0.9989
0.005821
0.005702
0.004909
0.002136
0.00116
0.0006429
0.0004402
0.0007329
0.001413
0.001664
0.002119
0.002817
0.003247
0.003696
0.003715
0.002501
0.0009765
0.0003654
0.00017
0.0001252
0.0002246
0.0006247
0.001708
0.003488
0.005354
0.005732
0.006943
0.006709
0.006638
0.006754
0.007861
0.01014
0.01302
0.01151
0.007614
0.004825
0.003692
0.005194
0.004913
0.004644
0.003049
0.001564
0.0006182
0.0005055
0.0003449
0.0006538
0.001396
0.003832
0.00435
0.003294
0.001317
0.0008109
0.001166
0.003067
0.009031
0.02187
0.04259
0.06983
0.1156
0.1823
0.2636
0.3651
0.4775
0.5897
0.6693
0.7307
0.7806
0.823
0.8557
0.8782
0.8965
0.9093
0.9168
0.9225
0.9289
0.9359
0.9435
0.9546
0.9671
0.9795
0.9876
0.9928
0.995
0.996
0.9962
0.9959
0.9952
0.9951
0.9957
0.9962
0.9966
0.9961
0.9948
0.993
0.9917
0.9906
0.9907
0.9909
0.991
0.9904
0.9897
0.9886
0.9892
0.9892
0.9895
0.9888
0.9882
0.987
0.9869
0.9864
0.9859
0.9851
0.9845
0.984
0.9835
0.9826
0.9827
0.9841
0.987
0.9899
0.9923
0.9941
0.9952
0.996
0.9966
0.9971
0.9975
0.9979
0.9983
0.9986
0.9988
0.999
0.9991
0.9992
0.9993
0.9994
0.9995
0.9995
0.9995
0.9996
0.9996
0.9996
0.9996
0.9996
0.9997
0.9997
0.9997
0.9997
0.9997
0.9996
0.9996
0.9996
0.9997
0.9998
0.9998
0.9999
0.9998
0.9997
0.9995
0.9992
0.006503
0.006851
0.007396
0.002496
0.001084
0.000646
0.0007313
0.001892
0.004016
0.003206
0.002317
0.001689
0.001328
0.002286
0.001722
0.0005554
0.0001545
4.253e-05
2.04e-05
1.748e-05
4.708e-05
0.0002272
0.000915
0.002462
0.005089
0.00524
0.006113
0.006075
0.005316
0.00507
0.006448
0.01026
0.01599
0.01719
0.01166
0.007019
0.005514
0.006998
0.008244
0.0104
0.01149
0.009166
0.005867
0.005555
0.004139
0.003976
0.004766
0.007564
0.01003
0.01185
0.01043
0.008501
0.01122
0.01691
0.03425
0.06291
0.1125
0.1724
0.263
0.3444
0.4466
0.5312
0.6102
0.6862
0.7474
0.7915
0.8317
0.8632
0.8835
0.8957
0.9038
0.9115
0.9187
0.9252
0.9299
0.934
0.9372
0.9487
0.9626
0.9777
0.9878
0.9932
0.9956
0.9966
0.9964
0.9955
0.9938
0.9918
0.9912
0.99
0.9896
0.9883
0.9862
0.9849
0.9859
0.9874
0.9891
0.9896
0.9895
0.9885
0.9875
0.9866
0.9877
0.988
0.9887
0.988
0.9877
0.9868
0.9873
0.9873
0.9877
0.988
0.9882
0.9884
0.9885
0.9888
0.9899
0.992
0.9943
0.9961
0.9971
0.9978
0.9982
0.9985
0.9987
0.9989
0.999
0.9991
0.9992
0.9993
0.9994
0.9994
0.9995
0.9995
0.9996
0.9996
0.9996
0.9996
0.9996
0.9996
0.9996
0.9996
0.9997
0.9997
0.9997
0.9997
0.9997
0.9997
0.9996
0.9997
0.9997
0.9997
0.9998
0.9998
0.9998
0.9999
0.9999
0.9998
0.9998
0.9996
0.006075
0.007246
0.01111
0.003931
0.001272
0.0006657
0.001056
0.002798
0.005871
0.004472
0.00228
0.001386
0.001202
0.001989
0.0006919
0.0001261
3.351e-05
1.143e-05
8.698e-06
1.027e-05
3.715e-05
0.0001913
0.0008598
0.002643
0.007099
0.00635
0.007728
0.00725
0.005244
0.004335
0.004919
0.008338
0.01415
0.017
0.0131
0.009574
0.009522
0.01127
0.01499
0.01925
0.02413
0.02502
0.0234
0.01963
0.01393
0.009924
0.008793
0.01066
0.01644
0.02188
0.02532
0.02544
0.03345
0.04799
0.09833
0.1677
0.2722
0.3641
0.4527
0.5084
0.5802
0.645
0.725
0.7969
0.8508
0.888
0.9178
0.9321
0.9375
0.9334
0.9234
0.9154
0.918
0.9227
0.9266
0.9267
0.9255
0.9359
0.952
0.9709
0.9834
0.991
0.9939
0.9945
0.9938
0.9915
0.9872
0.9809
0.9761
0.97
0.9653
0.9615
0.9595
0.9629
0.9706
0.9775
0.9815
0.9825
0.9815
0.9792
0.9778
0.9778
0.9806
0.9825
0.9845
0.986
0.9869
0.9868
0.9868
0.9866
0.987
0.988
0.9889
0.9898
0.9904
0.9916
0.9933
0.9957
0.9974
0.9984
0.9988
0.999
0.9991
0.9992
0.9993
0.9993
0.9994
0.9994
0.9995
0.9995
0.9996
0.9996
0.9996
0.9996
0.9996
0.9996
0.9996
0.9996
0.9996
0.9997
0.9997
0.9997
0.9997
0.9997
0.9997
0.9997
0.9997
0.9997
0.9997
0.9997
0.9998
0.9998
0.9999
0.9999
0.9999
0.9999
0.9999
0.9999
0.9999
0.9998
0.004923
0.006961
0.01126
0.004726
0.001541
0.001207
0.001882
0.005003
0.007072
0.004633
0.001922
0.000999
0.0008239
0.001028
0.0001883
4.087e-05
1.779e-05
1.204e-05
1.581e-05
2.414e-05
9.013e-05
0.000357
0.001703
0.004959
0.01235
0.009443
0.009909
0.009084
0.007069
0.006589
0.00704
0.01012
0.0161
0.0182
0.01483
0.01297
0.01498
0.0172
0.02001
0.02322
0.02983
0.03536
0.04627
0.04212
0.02967
0.01804
0.01248
0.01278
0.02046
0.03217
0.04736
0.0626
0.09296
0.1385
0.2268
0.3332
0.4583
0.5202
0.5885
0.6428
0.7044
0.7737
0.848
0.9034
0.94
0.958
0.9681
0.9696
0.9674
0.958
0.9435
0.9265
0.92
0.9161
0.9147
0.9129
0.9051
0.9139
0.9308
0.9529
0.9686
0.9789
0.9846
0.9852
0.9828
0.9748
0.9642
0.9476
0.9342
0.9163
0.9035
0.8978
0.9004
0.914
0.9322
0.9481
0.9565
0.9578
0.9533
0.9489
0.9487
0.9528
0.9608
0.9679
0.9742
0.9786
0.982
0.9838
0.9845
0.9848
0.9859
0.9868
0.9874
0.9883
0.9887
0.9909
0.9936
0.9968
0.9984
0.9992
0.9994
0.9995
0.9994
0.9994
0.9994
0.9995
0.9995
0.9995
0.9995
0.9996
0.9996
0.9996
0.9996
0.9996
0.9996
0.9996
0.9997
0.9997
0.9997
0.9997
0.9997
0.9997
0.9997
0.9997
0.9997
0.9997
0.9997
0.9997
0.9997
0.9998
0.9999
0.9999
0.9999
0.9999
0.9999
0.9999
0.9999
0.9999
0.9999
0.9998
0.004665
0.007001
0.009644
0.004475
0.001363
0.001455
0.002901
0.008345
0.009704
0.006005
0.002548
0.001126
0.000634
0.0005422
9.718e-05
2.968e-05
3.149e-05
4.852e-05
8.972e-05
0.0001528
0.000474
0.00139
0.005582
0.01436
0.02826
0.01894
0.01652
0.01274
0.009419
0.008182
0.009083
0.01244
0.01938
0.02256
0.01958
0.01843
0.02313
0.02751
0.02818
0.02591
0.02579
0.02654
0.03379
0.03665
0.03249
0.0261
0.02331
0.02528
0.03417
0.05713
0.09458
0.1446
0.2164
0.2953
0.3754
0.4528
0.5417
0.6093
0.6891
0.7526
0.8187
0.8771
0.9246
0.9539
0.9717
0.9783
0.9819
0.9803
0.9763
0.965
0.9478
0.9222
0.9065
0.8924
0.8841
0.8802
0.866
0.8724
0.8864
0.9051
0.9259
0.9373
0.9437
0.9369
0.9205
0.8916
0.8661
0.8382
0.8313
0.8135
0.7894
0.7723
0.771
0.7982
0.8391
0.8736
0.8906
0.8925
0.8827
0.8737
0.8756
0.8872
0.9014
0.9224
0.9435
0.9585
0.9694
0.9751
0.9763
0.9772
0.9798
0.9816
0.9832
0.9845
0.9855
0.9882
0.9923
0.9966
0.9985
0.9992
0.9994
0.9995
0.9995
0.9995
0.9995
0.9995
0.9995
0.9995
0.9996
0.9996
0.9996
0.9996
0.9996
0.9997
0.9997
0.9997
0.9997
0.9997
0.9997
0.9997
0.9997
0.9997
0.9997
0.9997
0.9997
0.9996
0.9996
0.9997
0.9998
0.9999
0.9999
0.9999
0.9999
0.9999
0.9999
0.9999
0.9999
0.9999
0.9999
0.9997
0.005135
0.006934
0.008504
0.004567
0.001506
0.002156
0.003866
0.009245
0.01043
0.008089
0.003907
0.002093
0.001039
0.0006595
0.0001547
7.651e-05
0.0001442
0.0003207
0.0006693
0.001084
0.002909
0.005947
0.01441
0.02719
0.03533
0.02348
0.01775
0.01406
0.01115
0.01034
0.01142
0.01574
0.02442
0.03037
0.02822
0.02654
0.02942
0.02972
0.02596
0.02091
0.01772
0.01815
0.02334
0.03352
0.04333
0.04956
0.05409
0.06288
0.07578
0.1055
0.1518
0.2181
0.3063
0.4029
0.4756
0.5437
0.6217
0.6959
0.7871
0.8582
0.9123
0.9422
0.9615
0.9719
0.9793
0.9817
0.9829
0.9782
0.9726
0.962
0.9446
0.9177
0.888
0.8552
0.8303
0.8217
0.796
0.7905
0.7969
0.7966
0.8064
0.8044
0.7984
0.7712
0.7328
0.6604
0.6166
0.5758
0.5809
0.5753
0.5594
0.5424
0.5546
0.5935
0.6464
0.7001
0.7247
0.7396
0.7473
0.7548
0.7721
0.7978
0.8162
0.852
0.8908
0.9171
0.9387
0.9489
0.9534
0.9572
0.9642
0.9687
0.9731
0.9758
0.9789
0.9828
0.9895
0.9953
0.998
0.9989
0.9993
0.9994
0.9994
0.9995
0.9995
0.9995
0.9995
0.9995
0.9996
0.9996
0.9996
0.9997
0.9997
0.9997
0.9997
0.9997
0.9997
0.9997
0.9997
0.9997
0.9997
0.9997
0.9996
0.9996
0.9996
0.9996
0.9997
0.9998
0.9998
0.9999
0.9999
0.9999
0.9999
0.9999
0.9999
0.9998
0.9998
0.9998
0.9997
0.9994
0.006237
0.007535
0.009115
0.004395
0.001686
0.002191
0.002921
0.006882
0.009355
0.009931
0.005726
0.004761
0.002912
0.00179
0.0005884
0.0003483
0.0005589
0.001058
0.002028
0.004064
0.009167
0.01513
0.0231
0.02707
0.02257
0.01743
0.01667
0.01249
0.009727
0.008377
0.007537
0.00973
0.01772
0.02763
0.03151
0.03191
0.03249
0.03273
0.02931
0.02474
0.0207
0.0207
0.02572
0.03841
0.06006
0.08667
0.1116
0.1372
0.1596
0.195
0.2472
0.3087
0.391
0.469
0.5404
0.6091
0.6875
0.7659
0.8514
0.9119
0.9499
0.9652
0.9732
0.9733
0.9745
0.9724
0.9709
0.963
0.9546
0.9424
0.9231
0.8924
0.8506
0.7924
0.7425
0.7224
0.6791
0.6463
0.6268
0.5982
0.5873
0.5673
0.5427
0.4985
0.4619
0.3796
0.3453
0.3267
0.3154
0.3039
0.2914
0.2694
0.2716
0.2936
0.3357
0.4036
0.4557
0.5065
0.5472
0.5857
0.6131
0.6433
0.6538
0.7043
0.7674
0.8127
0.853
0.8731
0.8798
0.8923
0.9141
0.9297
0.9477
0.9599
0.9691
0.974
0.9837
0.9921
0.9966
0.9981
0.9988
0.999
0.9992
0.9994
0.9996
0.9996
0.9996
0.9996
0.9996
0.9996
0.9996
0.9997
0.9997
0.9997
0.9997
0.9997
0.9997
0.9997
0.9997
0.9996
0.9996
0.9996
0.9996
0.9997
0.9997
0.9998
0.9998
0.9999
0.9999
0.9999
0.9999
0.9999
0.9999
0.9999
0.9998
0.9997
0.9995
0.9994
0.9991
0.9984
0.007825
0.008741
0.0101
0.004497
0.002018
0.001846
0.001528
0.003711
0.00734
0.01098
0.008907
0.01211
0.006928
0.00467
0.002195
0.001602
0.001958
0.002983
0.003951
0.00697
0.01413
0.01946
0.02302
0.01985
0.01453
0.0132
0.01714
0.01541
0.0122
0.00983
0.007071
0.007686
0.01239
0.02338
0.03547
0.04368
0.04658
0.0457
0.04156
0.03727
0.03424
0.03416
0.04067
0.05692
0.08074
0.1162
0.1565
0.1972
0.2429
0.293
0.3531
0.4265
0.5155
0.6035
0.6836
0.7451
0.7996
0.8492
0.9032
0.9435
0.9671
0.9743
0.973
0.9642
0.9535
0.938
0.9253
0.9067
0.8936
0.8826
0.868
0.8366
0.7815
0.7016
0.6208
0.5766
0.5025
0.4398
0.3923
0.343
0.3182
0.2958
0.2784
0.2606
0.2485
0.2207
0.2067
0.191
0.1684
0.1446
0.1325
0.1246
0.1341
0.1564
0.174
0.183
0.1989
0.2257
0.2577
0.2937
0.3272
0.3789
0.406
0.4809
0.5489
0.5905
0.6283
0.655
0.6724
0.7214
0.7869
0.8423
0.8925
0.9279
0.9508
0.9619
0.9754
0.9865
0.9938
0.9967
0.9981
0.9986
0.999
0.9993
0.9995
0.9996
0.9996
0.9996
0.9996
0.9996
0.9996
0.9996
0.9996
0.9996
0.9995
0.9995
0.9995
0.9995
0.9996
0.9996
0.9997
0.9997
0.9998
0.9998
0.9999
0.9999
0.9999
0.9999
0.9999
0.9999
0.9999
0.9999
0.9998
0.9997
0.9995
0.9992
0.9985
0.9977
0.997
0.9952
0.008646
0.009345
0.01206
0.005153
0.002689
0.001139
0.0006016
0.001471
0.005365
0.01334
0.02033
0.02854
0.01533
0.01073
0.006175
0.004758
0.003797
0.004968
0.005072
0.008313
0.01263
0.01503
0.01632
0.01315
0.01311
0.01498
0.02198
0.02104
0.01779
0.01218
0.007917
0.006735
0.008929
0.0182
0.03475
0.0554
0.06897
0.06858
0.06496
0.06234
0.06267
0.06672
0.07773
0.09875
0.1256
0.1643
0.2117
0.2562
0.3064
0.3657
0.4348
0.5278
0.6283
0.7127
0.7881
0.8419
0.8812
0.9128
0.9411
0.9594
0.9708
0.9728
0.9659
0.9461
0.9152
0.8789
0.8541
0.8323
0.8184
0.8018
0.7766
0.7323
0.6693
0.577
0.4759
0.3934
0.2883
0.2352
0.2036
0.178
0.1626
0.1554
0.1533
0.1506
0.1336
0.1071
0.09039
0.08131
0.07208
0.06529
0.05818
0.05371
0.06102
0.07409
0.08599
0.09661
0.1087
0.1185
0.1355
0.1499
0.1615
0.1847
0.206
0.258
0.3041
0.3304
0.3482
0.3886
0.4169
0.4991
0.5938
0.7002
0.8017
0.8813
0.9275
0.9512
0.9687
0.9806
0.9895
0.9943
0.9966
0.9977
0.9984
0.999
0.9994
0.9995
0.9995
0.9995
0.9994
0.9994
0.9994
0.9995
0.9995
0.9996
0.9997
0.9997
0.9997
0.9997
0.9998
0.9998
0.9998
0.9998
0.9999
0.9999
0.9999
0.9999
0.9999
0.9999
0.9999
0.9999
0.9998
0.9996
0.9993
0.9988
0.9982
0.9971
0.9951
0.9925
0.9903
0.9852
0.007211
0.008422
0.01158
0.005303
0.004021
0.001162
0.0005568
0.001014
0.004367
0.009928
0.02164
0.02807
0.01769
0.0134
0.009886
0.008953
0.007028
0.007746
0.008536
0.009878
0.01171
0.01184
0.01102
0.008768
0.00931
0.01047
0.01638
0.01883
0.0197
0.0156
0.009391
0.005944
0.006155
0.01055
0.02314
0.0454
0.06742
0.07187
0.07561
0.08307
0.09704
0.1161
0.1414
0.1681
0.1983
0.2398
0.2946
0.3521
0.413
0.4792
0.5421
0.6228
0.7055
0.7739
0.8331
0.8788
0.9107
0.9363