/*--------------------------------*- C++ -*----------------------------------*\
| =========                 |                                                 |
| \\      /  F ield         | OpenFOAM: The Open Source CFD Toolbox           |
|  \\    /   O peration     | Version:  5.x                                   |
|   \\  /    A nd           | Web:      www.OpenFOAM.org                      |
|    \\/     M anipulation  |                                                 |
\*---------------------------------------------------------------------------*/
FoamFile
{
    version     2.0;
    format      ascii;
    class       volScalarField;
    location    "10";
    object      T;
}
// * * * * * * * * * * * * * * * * * * * * * * * * * * * * * * * * * * * * * //

dimensions      [0 0 0 1 0 0 0];

internalField   nonuniform List<scalar> 
86400
(
33.75
33.75
33.74
33.73
33.71
33.69
33.67
33.64
33.61
33.58
33.55
33.51
33.48
33.44
33.4
33.36
33.32
33.28
33.24
33.19
33.15
33.11
33.07
33.02
32.98
32.94
32.89
32.85
32.81
32.77
32.73
32.68
32.64
32.6
32.56
32.52
32.49
32.45
32.41
32.37
32.33
32.3
32.26
32.23
32.19
32.16
32.12
32.09
32.05
32.02
31.99
31.95
31.92
31.89
31.86
31.83
31.79
31.76
31.73
31.7
31.67
31.64
31.61
31.59
31.56
31.53
31.5
31.47
31.44
31.42
31.39
31.36
31.33
31.31
31.28
31.25
31.23
31.2
31.17
31.15
31.12
31.1
31.07
31.04
31.02
30.99
30.97
30.94
30.91
30.89
30.86
30.84
30.81
30.78
30.76
30.73
30.71
30.68
30.65
30.63
30.6
30.57
30.55
30.52
30.49
30.47
30.44
30.41
30.38
30.36
30.33
30.3
30.27
30.24
30.21
30.18
30.15
30.12
30.09
30.06
30.03
29.99
29.96
29.93
29.89
29.86
29.82
29.79
29.75
29.72
29.68
29.64
29.6
29.56
29.52
29.48
29.44
29.4
29.35
29.31
29.26
29.22
29.17
29.12
29.07
29.02
28.96
28.91
28.85
28.79
28.73
28.67
28.6
28.54
28.47
28.39
28.32
28.24
28.16
28.07
33.73
33.72
33.72
33.7
33.69
33.67
33.64
33.62
33.59
33.56
33.53
33.49
33.45
33.42
33.38
33.34
33.3
33.25
33.21
33.17
33.13
33.08
33.04
33
32.95
32.91
32.87
32.82
32.78
32.74
32.7
32.66
32.62
32.58
32.54
32.5
32.46
32.42
32.38
32.34
32.31
32.27
32.23
32.2
32.16
32.13
32.09
32.06
32.02
31.99
31.96
31.93
31.89
31.86
31.83
31.8
31.77
31.74
31.71
31.68
31.65
31.62
31.59
31.56
31.53
31.5
31.47
31.44
31.42
31.39
31.36
31.33
31.31
31.28
31.25
31.22
31.2
31.17
31.15
31.12
31.09
31.07
31.04
31.01
30.99
30.96
30.94
30.91
30.89
30.86
30.83
30.81
30.78
30.76
30.73
30.7
30.68
30.65
30.63
30.6
30.57
30.55
30.52
30.49
30.47
30.44
30.41
30.38
30.35
30.33
30.3
30.27
30.24
30.21
30.18
30.15
30.12
30.09
30.06
30.03
30
29.96
29.93
29.9
29.86
29.83
29.79
29.76
29.72
29.69
29.65
29.61
29.57
29.53
29.49
29.45
29.41
29.37
29.32
29.28
29.23
29.18
29.13
29.08
29.03
28.98
28.93
28.87
28.81
28.75
28.69
28.62
28.56
28.49
28.41
28.33
28.25
28.15
28.05
27.91
33.69
33.68
33.67
33.66
33.64
33.62
33.6
33.57
33.54
33.51
33.48
33.44
33.41
33.37
33.33
33.29
33.25
33.2
33.16
33.12
33.07
33.03
32.99
32.94
32.9
32.86
32.81
32.77
32.73
32.68
32.64
32.6
32.56
32.52
32.48
32.44
32.4
32.36
32.32
32.29
32.25
32.21
32.18
32.14
32.1
32.07
32.03
32
31.97
31.93
31.9
31.87
31.83
31.8
31.77
31.74
31.71
31.68
31.65
31.62
31.59
31.56
31.53
31.5
31.47
31.44
31.41
31.38
31.36
31.33
31.3
31.27
31.25
31.22
31.19
31.17
31.14
31.11
31.09
31.06
31.03
31.01
30.98
30.95
30.93
30.9
30.88
30.85
30.83
30.8
30.77
30.75
30.72
30.7
30.67
30.64
30.62
30.59
30.56
30.54
30.51
30.48
30.46
30.43
30.4
30.38
30.35
30.32
30.29
30.26
30.23
30.21
30.18
30.15
30.12
30.09
30.06
30.03
29.99
29.96
29.93
29.9
29.86
29.83
29.8
29.76
29.73
29.69
29.65
29.62
29.58
29.54
29.5
29.46
29.42
29.38
29.33
29.29
29.24
29.2
29.15
29.1
29.05
29
28.94
28.89
28.83
28.77
28.71
28.65
28.58
28.51
28.43
28.35
28.27
28.17
28.07
27.94
27.8
27.6
33.62
33.62
33.61
33.6
33.58
33.56
33.53
33.51
33.48
33.44
33.41
33.37
33.33
33.29
33.25
33.21
33.17
33.13
33.08
33.04
32.99
32.95
32.9
32.86
32.82
32.77
32.73
32.68
32.64
32.6
32.56
32.52
32.47
32.43
32.39
32.35
32.31
32.27
32.24
32.2
32.16
32.12
32.09
32.05
32.02
31.98
31.95
31.91
31.88
31.84
31.81
31.78
31.74
31.71
31.68
31.65
31.62
31.59
31.56
31.52
31.49
31.47
31.44
31.41
31.38
31.35
31.32
31.29
31.26
31.24
31.21
31.18
31.15
31.13
31.1
31.07
31.04
31.02
30.99
30.97
30.94
30.91
30.89
30.86
30.83
30.81
30.78
30.76
30.73
30.7
30.68
30.65
30.63
30.6
30.57
30.55
30.52
30.49
30.47
30.44
30.41
30.39
30.36
30.33
30.3
30.28
30.25
30.22
30.19
30.16
30.13
30.1
30.07
30.04
30.01
29.98
29.95
29.92
29.89
29.86
29.82
29.79
29.76
29.72
29.69
29.65
29.61
29.58
29.54
29.5
29.46
29.42
29.38
29.34
29.29
29.25
29.21
29.16
29.11
29.06
29.01
28.96
28.91
28.85
28.79
28.73
28.67
28.6
28.53
28.46
28.38
28.3
28.21
28.12
28.01
27.9
27.76
27.61
27.42
27.18
33.54
33.53
33.52
33.51
33.49
33.47
33.44
33.41
33.38
33.35
33.31
33.28
33.24
33.19
33.15
33.11
33.07
33.02
32.98
32.93
32.89
32.84
32.79
32.75
32.7
32.66
32.61
32.57
32.53
32.48
32.44
32.4
32.36
32.31
32.27
32.23
32.19
32.15
32.12
32.08
32.04
32
31.96
31.93
31.89
31.86
31.82
31.79
31.75
31.72
31.68
31.65
31.62
31.59
31.55
31.52
31.49
31.46
31.43
31.4
31.37
31.34
31.31
31.28
31.25
31.22
31.19
31.16
31.13
31.11
31.08
31.05
31.02
30.99
30.97
30.94
30.91
30.89
30.86
30.83
30.81
30.78
30.75
30.73
30.7
30.67
30.65
30.62
30.59
30.57
30.54
30.52
30.49
30.46
30.44
30.41
30.38
30.36
30.33
30.3
30.27
30.25
30.22
30.19
30.16
30.13
30.11
30.08
30.05
30.02
29.99
29.96
29.93
29.9
29.87
29.83
29.8
29.77
29.74
29.7
29.67
29.63
29.6
29.56
29.53
29.49
29.45
29.41
29.37
29.33
29.29
29.25
29.2
29.16
29.11
29.07
29.02
28.97
28.92
28.86
28.81
28.75
28.69
28.63
28.57
28.5
28.43
28.35
28.27
28.19
28.1
28
27.9
27.78
27.65
27.51
27.34
27.15
26.93
26.66
33.43
33.43
33.42
33.4
33.38
33.36
33.33
33.3
33.27
33.23
33.19
33.15
33.11
33.07
33.03
32.98
32.94
32.89
32.84
32.8
32.75
32.7
32.65
32.61
32.56
32.51
32.47
32.42
32.38
32.33
32.29
32.25
32.21
32.16
32.12
32.08
32.04
32
31.96
31.92
31.88
31.84
31.81
31.77
31.73
31.7
31.66
31.62
31.59
31.56
31.52
31.49
31.45
31.42
31.39
31.36
31.32
31.29
31.26
31.23
31.2
31.17
31.14
31.11
31.08
31.05
31.02
30.99
30.96
30.94
30.91
30.88
30.85
30.82
30.8
30.77
30.74
30.71
30.69
30.66
30.63
30.61
30.58
30.55
30.52
30.5
30.47
30.44
30.42
30.39
30.36
30.34
30.31
30.28
30.26
30.23
30.2
30.17
30.15
30.12
30.09
30.06
30.03
30.01
29.98
29.95
29.92
29.89
29.86
29.83
29.8
29.77
29.73
29.7
29.67
29.64
29.6
29.57
29.53
29.5
29.46
29.43
29.39
29.35
29.31
29.27
29.23
29.19
29.15
29.11
29.06
29.02
28.97
28.92
28.87
28.82
28.77
28.71
28.66
28.6
28.54
28.47
28.41
28.34
28.26
28.19
28.11
28.02
27.93
27.83
27.73
27.61
27.49
27.35
27.2
27.03
26.84
26.62
26.37
26.08
33.31
33.3
33.29
33.27
33.25
33.23
33.2
33.17
33.13
33.09
33.05
33.01
32.97
32.92
32.87
32.83
32.78
32.73
32.68
32.63
32.58
32.53
32.48
32.44
32.39
32.34
32.29
32.25
32.2
32.15
32.11
32.06
32.02
31.98
31.93
31.89
31.85
31.81
31.77
31.73
31.69
31.65
31.61
31.57
31.54
31.5
31.46
31.43
31.39
31.35
31.32
31.29
31.25
31.22
31.18
31.15
31.12
31.09
31.05
31.02
30.99
30.96
30.93
30.9
30.87
30.84
30.81
30.78
30.75
30.72
30.69
30.67
30.64
30.61
30.58
30.55
30.53
30.5
30.47
30.44
30.42
30.39
30.36
30.33
30.31
30.28
30.25
30.22
30.2
30.17
30.14
30.11
30.09
30.06
30.03
30
29.97
29.95
29.92
29.89
29.86
29.83
29.8
29.77
29.74
29.71
29.68
29.65
29.62
29.59
29.56
29.52
29.49
29.46
29.42
29.39
29.35
29.32
29.28
29.24
29.2
29.17
29.13
29.09
29.05
29
28.96
28.92
28.87
28.82
28.77
28.73
28.67
28.62
28.57
28.51
28.45
28.39
28.33
28.27
28.2
28.13
28.05
27.97
27.89
27.8
27.71
27.61
27.51
27.4
27.28
27.15
27
26.85
26.67
26.48
26.27
26.03
25.77
25.48
33.17
33.16
33.15
33.13
33.1
33.08
33.04
33.01
32.97
32.93
32.89
32.84
32.79
32.75
32.7
32.65
32.6
32.54
32.49
32.44
32.39
32.34
32.29
32.23
32.18
32.14
32.09
32.04
31.99
31.94
31.9
31.85
31.8
31.76
31.71
31.67
31.63
31.58
31.54
31.5
31.46
31.42
31.38
31.34
31.3
31.26
31.23
31.19
31.15
31.12
31.08
31.04
31.01
30.98
30.94
30.91
30.87
30.84
30.81
30.78
30.74
30.71
30.68
30.65
30.62
30.59
30.56
30.53
30.5
30.47
30.44
30.41
30.38
30.35
30.33
30.3
30.27
30.24
30.21
30.18
30.16
30.13
30.1
30.07
30.04
30.02
29.99
29.96
29.93
29.9
29.88
29.85
29.82
29.79
29.76
29.73
29.7
29.67
29.64
29.61
29.58
29.55
29.52
29.49
29.46
29.43
29.4
29.37
29.33
29.3
29.27
29.23
29.2
29.16
29.13
29.09
29.05
29.01
28.98
28.94
28.9
28.85
28.81
28.77
28.72
28.68
28.63
28.59
28.54
28.49
28.43
28.38
28.32
28.27
28.21
28.15
28.08
28.01
27.95
27.87
27.8
27.72
27.64
27.55
27.46
27.36
27.26
27.15
27.03
26.9
26.77
26.62
26.47
26.3
26.11
25.91
25.68
25.44
25.17
24.88
33
32.99
32.98
32.96
32.93
32.9
32.87
32.83
32.79
32.75
32.7
32.65
32.6
32.55
32.5
32.44
32.39
32.33
32.28
32.22
32.17
32.11
32.06
32.01
31.95
31.9
31.85
31.8
31.75
31.7
31.65
31.6
31.55
31.51
31.46
31.42
31.37
31.33
31.28
31.24
31.2
31.15
31.11
31.07
31.03
30.99
30.95
30.92
30.88
30.84
30.8
30.77
30.73
30.7
30.66
30.63
30.59
30.56
30.52
30.49
30.46
30.43
30.39
30.36
30.33
30.3
30.27
30.24
30.21
30.18
30.15
30.12
30.09
30.06
30.03
30
29.97
29.94
29.91
29.88
29.85
29.83
29.8
29.77
29.74
29.71
29.68
29.65
29.62
29.6
29.57
29.54
29.51
29.48
29.45
29.42
29.39
29.36
29.33
29.3
29.27
29.23
29.2
29.17
29.14
29.1
29.07
29.04
29
28.97
28.93
28.9
28.86
28.82
28.78
28.75
28.71
28.67
28.62
28.58
28.54
28.5
28.45
28.4
28.36
28.31
28.26
28.21
28.15
28.1
28.04
27.98
27.92
27.86
27.8
27.73
27.66
27.59
27.51
27.43
27.35
27.26
27.17
27.08
26.98
26.87
26.76
26.64
26.51
26.37
26.23
26.07
25.9
25.72
25.53
25.32
25.09
24.85
24.59
24.32
32.82
32.81
32.8
32.78
32.75
32.71
32.68
32.63
32.59
32.54
32.49
32.44
32.38
32.33
32.27
32.21
32.15
32.1
32.04
31.98
31.92
31.87
31.81
31.75
31.7
31.64
31.59
31.53
31.48
31.43
31.38
31.33
31.28
31.23
31.18
31.13
31.08
31.04
30.99
30.95
30.9
30.86
30.81
30.77
30.73
30.69
30.65
30.61
30.57
30.53
30.49
30.45
30.42
30.38
30.34
30.31
30.27
30.24
30.2
30.17
30.14
30.1
30.07
30.04
30
29.97
29.94
29.91
29.88
29.85
29.82
29.78
29.75
29.72
29.69
29.66
29.63
29.6
29.57
29.54
29.51
29.48
29.46
29.43
29.4
29.37
29.34
29.31
29.28
29.25
29.22
29.19
29.16
29.13
29.1
29.06
29.03
29
28.97
28.94
28.9
28.87
28.84
28.81
28.77
28.74
28.7
28.67
28.63
28.59
28.56
28.52
28.48
28.44
28.4
28.36
28.32
28.27
28.23
28.19
28.14
28.09
28.04
28
27.94
27.89
27.84
27.78
27.73
27.67
27.61
27.54
27.48
27.41
27.34
27.27
27.2
27.12
27.04
26.95
26.86
26.77
26.67
26.57
26.46
26.35
26.23
26.1
25.96
25.82
25.67
25.51
25.33
25.15
24.95
24.75
24.53
24.3
24.06
23.81
32.63
32.62
32.6
32.57
32.54
32.51
32.46
32.42
32.37
32.32
32.26
32.2
32.15
32.09
32.02
31.96
31.9
31.84
31.78
31.71
31.65
31.59
31.53
31.47
31.42
31.36
31.3
31.24
31.19
31.13
31.08
31.02
30.97
30.92
30.87
30.82
30.77
30.72
30.67
30.62
30.58
30.53
30.49
30.44
30.4
30.35
30.31
30.27
30.23
30.19
30.15
30.11
30.07
30.03
30
29.96
29.92
29.89
29.85
29.82
29.78
29.75
29.71
29.68
29.64
29.61
29.58
29.55
29.51
29.48
29.45
29.42
29.39
29.36
29.32
29.29
29.26
29.23
29.2
29.17
29.14
29.11
29.08
29.05
29.02
28.99
28.96
28.93
28.89
28.86
28.83
28.8
28.77
28.74
28.71
28.67
28.64
28.61
28.58
28.54
28.51
28.47
28.44
28.4
28.37
28.33
28.3
28.26
28.22
28.18
28.14
28.1
28.06
28.02
27.98
27.94
27.89
27.85
27.8
27.75
27.7
27.66
27.6
27.55
27.5
27.44
27.39
27.33
27.27
27.2
27.14
27.07
27
26.93
26.86
26.78
26.7
26.62
26.53
26.44
26.35
26.25
26.15
26.04
25.93
25.81
25.68
25.55
25.41
25.26
25.11
24.95
24.77
24.59
24.4
24.2
24
23.79
23.57
23.35
32.41
32.4
32.38
32.36
32.32
32.28
32.24
32.19
32.13
32.07
32.01
31.95
31.89
31.82
31.76
31.69
31.63
31.56
31.49
31.43
31.36
31.3
31.24
31.17
31.11
31.05
30.99
30.93
30.87
30.81
30.75
30.7
30.64
30.58
30.53
30.48
30.42
30.37
30.32
30.27
30.22
30.18
30.13
30.08
30.04
29.99
29.95
29.91
29.86
29.82
29.78
29.74
29.7
29.66
29.62
29.58
29.54
29.51
29.47
29.43
29.4
29.36
29.32
29.29
29.26
29.22
29.19
29.15
29.12
29.09
29.05
29.02
28.99
28.96
28.92
28.89
28.86
28.83
28.8
28.77
28.73
28.7
28.67
28.64
28.61
28.58
28.54
28.51
28.48
28.45
28.42
28.38
28.35
28.32
28.29
28.25
28.22
28.18
28.15
28.12
28.08
28.05
28.01
27.97
27.94
27.9
27.86
27.82
27.78
27.74
27.7
27.66
27.62
27.57
27.53
27.48
27.44
27.39
27.34
27.29
27.24
27.19
27.14
27.08
27.02
26.97
26.91
26.85
26.78
26.72
26.65
26.58
26.51
26.43
26.35
26.27
26.19
26.1
26.01
25.92
25.82
25.72
25.61
25.5
25.39
25.27
25.14
25.01
24.87
24.72
24.57
24.41
24.24
24.07
23.89
23.71
23.52
23.33
23.14
22.96
32.19
32.18
32.15
32.12
32.09
32.04
31.99
31.94
31.88
31.82
31.75
31.68
31.62
31.55
31.48
31.41
31.34
31.26
31.19
31.13
31.06
30.99
30.92
30.85
30.79
30.72
30.66
30.59
30.53
30.47
30.41
30.35
30.29
30.23
30.17
30.12
30.06
30.01
29.95
29.9
29.85
29.8
29.75
29.7
29.65
29.61
29.56
29.52
29.47
29.43
29.39
29.34
29.3
29.26
29.22
29.18
29.14
29.1
29.06
29.02
28.99
28.95
28.91
28.88
28.84
28.81
28.77
28.74
28.7
28.67
28.63
28.6
28.57
28.53
28.5
28.47
28.43
28.4
28.37
28.34
28.3
28.27
28.24
28.21
28.17
28.14
28.11
28.07
28.04
28.01
27.98
27.94
27.91
27.87
27.84
27.81
27.77
27.74
27.7
27.67
27.63
27.59
27.55
27.52
27.48
27.44
27.4
27.36
27.32
27.28
27.23
27.19
27.15
27.1
27.06
27.01
26.96
26.91
26.86
26.81
26.76
26.7
26.65
26.59
26.53
26.47
26.41
26.35
26.28
26.21
26.14
26.07
26
25.92
25.84
25.76
25.67
25.58
25.49
25.39
25.3
25.19
25.08
24.97
24.86
24.74
24.61
24.48
24.34
24.2
24.06
23.91
23.75
23.59
23.43
23.26
23.1
22.93
22.78
22.62
31.95
31.94
31.91
31.88
31.84
31.79
31.73
31.67
31.61
31.54
31.47
31.4
31.33
31.25
31.18
31.1
31.03
30.95
30.88
30.81
30.73
30.66
30.59
30.52
30.44
30.38
30.31
30.24
30.17
30.11
30.04
29.98
29.92
29.86
29.8
29.74
29.68
29.62
29.57
29.51
29.46
29.41
29.35
29.3
29.25
29.2
29.16
29.11
29.06
29.02
28.97
28.93
28.88
28.84
28.8
28.76
28.72
28.68
28.64
28.6
28.56
28.52
28.48
28.44
28.41
28.37
28.33
28.3
28.26
28.23
28.19
28.16
28.12
28.09
28.05
28.02
27.99
27.95
27.92
27.89
27.85
27.82
27.79
27.75
27.72
27.69
27.65
27.62
27.58
27.55
27.52
27.48
27.45
27.41
27.38
27.34
27.31
27.27
27.23
27.2
27.16
27.12
27.08
27.04
27
26.96
26.92
26.88
26.84
26.8
26.75
26.71
26.66
26.62
26.57
26.52
26.47
26.42
26.37
26.32
26.26
26.21
26.15
26.09
26.03
25.97
25.91
25.84
25.77
25.7
25.63
25.56
25.48
25.41
25.32
25.24
25.15
25.07
24.97
24.88
24.78
24.68
24.57
24.46
24.35
24.23
24.11
23.98
23.85
23.72
23.58
23.44
23.3
23.16
23.01
22.87
22.73
22.6
22.47
22.35
31.7
31.68
31.66
31.62
31.58
31.52
31.46
31.4
31.33
31.26
31.18
31.11
31.03
30.95
30.87
30.79
30.71
30.63
30.55
30.47
30.39
30.32
30.24
30.16
30.09
30.02
29.94
29.87
29.8
29.73
29.67
29.6
29.53
29.47
29.41
29.34
29.28
29.22
29.17
29.11
29.05
29
28.94
28.89
28.84
28.79
28.74
28.69
28.64
28.59
28.54
28.5
28.45
28.41
28.36
28.32
28.28
28.24
28.2
28.16
28.12
28.08
28.04
28
27.96
27.92
27.88
27.85
27.81
27.77
27.74
27.7
27.67
27.63
27.6
27.56
27.53
27.49
27.46
27.42
27.39
27.35
27.32
27.28
27.25
27.22
27.18
27.15
27.11
27.08
27.04
27.01
26.97
26.94
26.9
26.86
26.83
26.79
26.75
26.72
26.68
26.64
26.6
26.56
26.52
26.48
26.44
26.39
26.35
26.31
26.26
26.22
26.17
26.12
26.08
26.03
25.98
25.92
25.87
25.82
25.76
25.71
25.65
25.59
25.53
25.47
25.4
25.34
25.27
25.2
25.13
25.05
24.98
24.9
24.82
24.74
24.65
24.56
24.47
24.38
24.28
24.18
24.08
23.97
23.86
23.75
23.64
23.52
23.4
23.28
23.15
23.03
22.9
22.78
22.66
22.54
22.42
22.32
22.22
22.13
31.44
31.42
31.39
31.35
31.3
31.25
31.18
31.11
31.04
30.96
30.88
30.8
30.72
30.63
30.55
30.46
30.38
30.29
30.21
30.13
30.04
29.96
29.88
29.8
29.72
29.65
29.57
29.49
29.42
29.35
29.28
29.21
29.14
29.07
29.01
28.94
28.88
28.82
28.75
28.69
28.64
28.58
28.52
28.47
28.41
28.36
28.31
28.26
28.21
28.16
28.11
28.06
28.01
27.97
27.92
27.88
27.83
27.79
27.75
27.7
27.66
27.62
27.58
27.54
27.5
27.46
27.42
27.39
27.35
27.31
27.27
27.24
27.2
27.16
27.13
27.09
27.06
27.02
26.99
26.95
26.92
26.88
26.84
26.81
26.77
26.74
26.7
26.67
26.63
26.6
26.56
26.53
26.49
26.45
26.42
26.38
26.34
26.31
26.27
26.23
26.19
26.15
26.11
26.07
26.03
25.99
25.95
25.9
25.86
25.82
25.77
25.72
25.68
25.63
25.58
25.53
25.48
25.43
25.38
25.32
25.27
25.21
25.15
25.09
25.03
24.97
24.91
24.84
24.77
24.7
24.63
24.56
24.49
24.41
24.33
24.25
24.17
24.08
23.99
23.9
23.81
23.72
23.62
23.52
23.42
23.31
23.21
23.1
22.99
22.88
22.77
22.67
22.56
22.45
22.35
22.26
22.17
22.09
22.02
21.97
31.17
31.15
31.12
31.08
31.02
30.96
30.89
30.82
30.74
30.66
30.57
30.48
30.4
30.31
30.22
30.13
30.04
29.95
29.86
29.77
29.69
29.6
29.52
29.43
29.35
29.27
29.19
29.11
29.03
28.96
28.88
28.81
28.74
28.67
28.6
28.53
28.47
28.4
28.34
28.27
28.21
28.15
28.1
28.04
27.98
27.93
27.87
27.82
27.77
27.72
27.67
27.62
27.57
27.52
27.47
27.43
27.38
27.34
27.29
27.25
27.21
27.16
27.12
27.08
27.04
27
26.96
26.92
26.88
26.84
26.81
26.77
26.73
26.69
26.66
26.62
26.58
26.55
26.51
26.48
26.44
26.4
26.37
26.33
26.3
26.26
26.22
26.19
26.15
26.12
26.08
26.04
26.01
25.97
25.93
25.9
25.86
25.82
25.78
25.74
25.7
25.66
25.62
25.58
25.54
25.5
25.46
25.42
25.37
25.33
25.28
25.24
25.19
25.14
25.09
25.04
24.99
24.94
24.89
24.84
24.78
24.72
24.67
24.61
24.55
24.49
24.42
24.36
24.29
24.23
24.16
24.09
24.02
23.94
23.87
23.79
23.71
23.63
23.54
23.46
23.37
23.28
23.19
23.1
23.01
22.92
22.82
22.73
22.63
22.54
22.44
22.35
22.26
22.18
22.1
22.03
21.97
21.91
21.87
21.84
30.89
30.87
30.84
30.79
30.74
30.67
30.6
30.52
30.43
30.35
30.26
30.16
30.07
29.98
29.88
29.79
29.69
29.6
29.51
29.41
29.32
29.23
29.14
29.06
28.97
28.89
28.8
28.72
28.64
28.56
28.48
28.41
28.33
28.26
28.19
28.12
28.05
27.98
27.92
27.85
27.79
27.73
27.67
27.61
27.55
27.49
27.44
27.38
27.33
27.28
27.22
27.17
27.12
27.07
27.02
26.98
26.93
26.88
26.84
26.79
26.75
26.71
26.66
26.62
26.58
26.54
26.5
26.46
26.42
26.38
26.34
26.3
26.26
26.23
26.19
26.15
26.11
26.08
26.04
26
25.97
25.93
25.89
25.86
25.82
25.78
25.75
25.71
25.68
25.64
25.6
25.57
25.53
25.49
25.45
25.42
25.38
25.34
25.3
25.26
25.22
25.18
25.14
25.1
25.06
25.02
24.98
24.94
24.89
24.85
24.8
24.76
24.71
24.66
24.62
24.57
24.52
24.47
24.42
24.36
24.31
24.25
24.2
24.14
24.08
24.02
23.96
23.9
23.84
23.77
23.71
23.64
23.57
23.5
23.43
23.36
23.28
23.2
23.13
23.05
22.97
22.89
22.81
22.73
22.64
22.56
22.48
22.4
22.31
22.24
22.16
22.09
22.02
21.96
21.9
21.85
21.81
21.78
21.77
21.76
30.61
30.59
30.56
30.51
30.45
30.37
30.3
30.21
30.12
30.03
29.94
29.84
29.74
29.64
29.54
29.44
29.35
29.25
29.15
29.05
28.96
28.86
28.77
28.68
28.59
28.5
28.41
28.33
28.25
28.16
28.08
28.01
27.93
27.85
27.78
27.71
27.64
27.57
27.5
27.43
27.37
27.3
27.24
27.18
27.12
27.06
27
26.95
26.89
26.84
26.78
26.73
26.68
26.63
26.58
26.53
26.48
26.44
26.39
26.34
26.3
26.25
26.21
26.17
26.12
26.08
26.04
26
25.96
25.92
25.88
25.84
25.8
25.76
25.72
25.69
25.65
25.61
25.57
25.54
25.5
25.46
25.43
25.39
25.35
25.32
25.28
25.24
25.21
25.17
25.13
25.1
25.06
25.02
24.98
24.95
24.91
24.87
24.83
24.79
24.76
24.72
24.68
24.64
24.6
24.55
24.51
24.47
24.43
24.38
24.34
24.29
24.25
24.2
24.16
24.11
24.06
24.01
23.96
23.91
23.86
23.81
23.75
23.7
23.64
23.58
23.53
23.47
23.41
23.35
23.28
23.22
23.16
23.09
23.02
22.96
22.89
22.82
22.75
22.68
22.6
22.53
22.46
22.39
22.32
22.25
22.18
22.11
22.04
21.98
21.92
21.87
21.82
21.78
21.74
21.71
21.7
21.69
21.7
21.72
30.33
30.31
30.27
30.21
30.15
30.07
29.99
29.9
29.81
29.71
29.61
29.51
29.41
29.31
29.2
29.1
28.99
28.89
28.79
28.69
28.59
28.49
28.4
28.3
28.21
28.12
28.03
27.94
27.85
27.77
27.69
27.61
27.53
27.45
27.37
27.3
27.23
27.16
27.09
27.02
26.95
26.88
26.82
26.76
26.7
26.64
26.58
26.52
26.46
26.41
26.35
26.3
26.25
26.19
26.14
26.09
26.04
26
25.95
25.9
25.86
25.81
25.76
25.72
25.68
25.63
25.59
25.55
25.51
25.47
25.43
25.39
25.35
25.31
25.27
25.23
25.19
25.16
25.12
25.08
25.04
25.01
24.97
24.93
24.9
24.86
24.82
24.79
24.75
24.71
24.68
24.64
24.6
24.57
24.53
24.49
24.45
24.42
24.38
24.34
24.3
24.26
24.22
24.18
24.14
24.1
24.06
24.02
23.98
23.94
23.89
23.85
23.81
23.76
23.72
23.67
23.62
23.58
23.53
23.48
23.43
23.38
23.33
23.28
23.22
23.17
23.12
23.06
23
22.95
22.89
22.83
22.77
22.71
22.65
22.59
22.53
22.47
22.4
22.34
22.28
22.22
22.16
22.09
22.04
21.98
21.92
21.87
21.82
21.77
21.73
21.69
21.66
21.64
21.62
21.62
21.62
21.64
21.66
21.7
30.04
30.02
29.98
29.92
29.85
29.77
29.69
29.59
29.5
29.39
29.29
29.18
29.08
28.97
28.86
28.75
28.64
28.54
28.43
28.33
28.23
28.12
28.03
27.93
27.83
27.74
27.65
27.56
27.47
27.38
27.3
27.21
27.13
27.05
26.97
26.9
26.82
26.75
26.68
26.61
26.54
26.47
26.41
26.34
26.28
26.22
26.16
26.1
26.04
25.98
25.93
25.87
25.82
25.77
25.72
25.66
25.61
25.56
25.52
25.47
25.42
25.38
25.33
25.29
25.24
25.2
25.15
25.11
25.07
25.03
24.99
24.95
24.91
24.87
24.83
24.79
24.75
24.71
24.67
24.64
24.6
24.56
24.53
24.49
24.45
24.42
24.38
24.34
24.31
24.27
24.23
24.2
24.16
24.12
24.09
24.05
24.01
23.98
23.94
23.9
23.86
23.83
23.79
23.75
23.71
23.67
23.63
23.59
23.55
23.51
23.47
23.43
23.39
23.34
23.3
23.26
23.21
23.17
23.12
23.07
23.03
22.98
22.93
22.88
22.83
22.79
22.73
22.68
22.63
22.58
22.53
22.47
22.42
22.37
22.31
22.26
22.21
22.15
22.1
22.04
21.99
21.94
21.89
21.84
21.79
21.75
21.71
21.67
21.63
21.6
21.58
21.56
21.54
21.54
21.54
21.56
21.58
21.61
21.66
21.71
29.75
29.73
29.68
29.63
29.55
29.47
29.38
29.28
29.18
29.08
28.97
28.86
28.74
28.63
28.52
28.41
28.3
28.19
28.08
27.97
27.86
27.76
27.66
27.56
27.46
27.36
27.27
27.18
27.09
27
26.91
26.83
26.74
26.66
26.58
26.5
26.43
26.35
26.28
26.21
26.14
26.07
26
25.94
25.88
25.81
25.75
25.69
25.63
25.57
25.52
25.46
25.41
25.35
25.3
25.25
25.2
25.15
25.1
25.05
25
24.96
24.91
24.86
24.82
24.77
24.73
24.69
24.65
24.6
24.56
24.52
24.48
24.44
24.4
24.36
24.32
24.29
24.25
24.21
24.17
24.14
24.1
24.06
24.02
23.99
23.95
23.92
23.88
23.84
23.81
23.77
23.74
23.7
23.66
23.63
23.59
23.56
23.52
23.48
23.45
23.41
23.37
23.34
23.3
23.26
23.22
23.18
23.15
23.11
23.07
23.03
22.99
22.95
22.91
22.87
22.82
22.78
22.74
22.7
22.65
22.61
22.57
22.52
22.48
22.43
22.38
22.34
22.29
22.25
22.2
22.15
22.11
22.06
22.01
21.97
21.92
21.87
21.83
21.79
21.74
21.7
21.66
21.63
21.59
21.56
21.53
21.51
21.49
21.47
21.46
21.46
21.46
21.47
21.49
21.52
21.56
21.61
21.67
21.75
29.46
29.44
29.39
29.33
29.26
29.17
29.08
28.98
28.87
28.76
28.65
28.53
28.42
28.3
28.18
28.07
27.95
27.84
27.73
27.62
27.51
27.4
27.3
27.2
27.1
27
26.9
26.81
26.71
26.62
26.53
26.45
26.36
26.28
26.2
26.12
26.04
25.97
25.89
25.82
25.75
25.68
25.61
25.55
25.48
25.42
25.36
25.29
25.23
25.18
25.12
25.06
25.01
24.95
24.9
24.85
24.79
24.74
24.69
24.64
24.6
24.55
24.5
24.46
24.41
24.37
24.32
24.28
24.24
24.19
24.15
24.11
24.07
24.03
23.99
23.95
23.91
23.88
23.84
23.8
23.76
23.73
23.69
23.65
23.62
23.58
23.54
23.51
23.47
23.44
23.4
23.37
23.33
23.3
23.26
23.23
23.19
23.16
23.12
23.09
23.05
23.02
22.98
22.94
22.91
22.87
22.84
22.8
22.76
22.73
22.69
22.65
22.62
22.58
22.54
22.5
22.46
22.42
22.39
22.35
22.31
22.27
22.23
22.19
22.15
22.11
22.06
22.02
21.98
21.94
21.9
21.86
21.82
21.78
21.74
21.71
21.67
21.63
21.6
21.56
21.53
21.5
21.47
21.45
21.42
21.4
21.39
21.38
21.37
21.37
21.38
21.39
21.41
21.44
21.47
21.52
21.57
21.64
21.71
21.8
29.18
29.15
29.1
29.04
28.96
28.87
28.78
28.67
28.56
28.45
28.33
28.21
28.09
27.97
27.85
27.73
27.62
27.5
27.39
27.27
27.16
27.05
26.95
26.84
26.74
26.64
26.54
26.44
26.35
26.26
26.17
26.08
26
25.91
25.83
25.75
25.67
25.59
25.52
25.45
25.37
25.3
25.24
25.17
25.1
25.04
24.98
24.91
24.85
24.79
24.73
24.68
24.62
24.57
24.51
24.46
24.41
24.36
24.31
24.26
24.21
24.16
24.11
24.07
24.02
23.98
23.93
23.89
23.84
23.8
23.76
23.72
23.68
23.64
23.6
23.56
23.52
23.48
23.45
23.41
23.37
23.33
23.3
23.26
23.23
23.19
23.16
23.12
23.09
23.05
23.02
22.98
22.95
22.91
22.88
22.85
22.81
22.78
22.75
22.71
22.68
22.64
22.61
22.58
22.54
22.51
22.48
22.44
22.41
22.37
22.34
22.3
22.27
22.23
22.2
22.16
22.13
22.09
22.06
22.02
21.99
21.95
21.92
21.88
21.85
21.81
21.78
21.74
21.71
21.67
21.64
21.6
21.57
21.54
21.51
21.48
21.45
21.42
21.4
21.37
21.35
21.33
21.31
21.3
21.29
21.28
21.28
21.28
21.29
21.3
21.32
21.35
21.38
21.43
21.47
21.53
21.6
21.68
21.77
21.86
28.89
28.86
28.82
28.75
28.67
28.58
28.48
28.37
28.26
28.14
28.02
27.9
27.77
27.65
27.53
27.41
27.29
27.17
27.05
26.94
26.82
26.71
26.6
26.5
26.39
26.29
26.19
26.09
26
25.91
25.81
25.73
25.64
25.55
25.47
25.39
25.31
25.23
25.16
25.08
25.01
24.94
24.87
24.8
24.74
24.67
24.61
24.55
24.49
24.43
24.37
24.31
24.25
24.2
24.14
24.09
24.04
23.98
23.93
23.88
23.83
23.79
23.74
23.69
23.65
23.6
23.56
23.51
23.47
23.43
23.39
23.34
23.3
23.26
23.22
23.19
23.15
23.11
23.07
23.03
23
22.96
22.93
22.89
22.86
22.82
22.79
22.75
22.72
22.69
22.65
22.62
22.59
22.55
22.52
22.49
22.46
22.42
22.39
22.36
22.33
22.3
22.26
22.23
22.2
22.17
22.14
22.11
22.07
22.04
22.01
21.98
21.95
21.92
21.89
21.85
21.82
21.79
21.76
21.73
21.7
21.67
21.64
21.61
21.58
21.55
21.52
21.49
21.46
21.43
21.4
21.38
21.35
21.33
21.31
21.28
21.26
21.24
21.23
21.21
21.2
21.19
21.19
21.19
21.19
21.19
21.2
21.22
21.24
21.26
21.3
21.33
21.38
21.44
21.5
21.57
21.65
21.74
21.84
21.94
28.61
28.58
28.53
28.47
28.38
28.29
28.19
28.07
27.96
27.84
27.71
27.59
27.46
27.34
27.21
27.09
26.96
26.84
26.72
26.61
26.49
26.38
26.27
26.16
26.06
25.95
25.85
25.75
25.66
25.56
25.47
25.38
25.3
25.21
25.13
25.05
24.97
24.89
24.81
24.74
24.66
24.59
24.52
24.46
24.39
24.32
24.26
24.2
24.13
24.07
24.01
23.96
23.9
23.84
23.79
23.73
23.68
23.63
23.58
23.53
23.48
23.43
23.38
23.34
23.29
23.24
23.2
23.16
23.11
23.07
23.03
22.99
22.95
22.91
22.87
22.83
22.79
22.75
22.72
22.68
22.64
22.61
22.57
22.54
22.51
22.47
22.44
22.41
22.37
22.34
22.31
22.28
22.24
22.21
22.18
22.15
22.12
22.09
22.06
22.03
22
21.97
21.94
21.91
21.88
21.85
21.82
21.8
21.77
21.74
21.71
21.68
21.65
21.63
21.6
21.57
21.54
21.52
21.49
21.46
21.44
21.41
21.38
21.36
21.33
21.31
21.29
21.26
21.24
21.22
21.2
21.18
21.16
21.15
21.13
21.12
21.11
21.1
21.09
21.09
21.08
21.09
21.09
21.1
21.11
21.13
21.15
21.18
21.21
21.25
21.29
21.34
21.4
21.47
21.54
21.62
21.71
21.81
21.91
22.03
28.33
28.31
28.25
28.19
28.1
28
27.9
27.78
27.67
27.54
27.42
27.29
27.16
27.03
26.9
26.78
26.65
26.53
26.41
26.29
26.17
26.06
25.95
25.84
25.73
25.63
25.53
25.43
25.33
25.24
25.14
25.05
24.97
24.88
24.8
24.71
24.63
24.56
24.48
24.4
24.33
24.26
24.19
24.12
24.05
23.99
23.92
23.86
23.8
23.74
23.68
23.62
23.56
23.51
23.45
23.4
23.34
23.29
23.24
23.19
23.14
23.09
23.04
23
22.95
22.91
22.86
22.82
22.77
22.73
22.69
22.65
22.61
22.57
22.53
22.49
22.46
22.42
22.38
22.35
22.31
22.28
22.24
22.21
22.17
22.14
22.11
22.08
22.05
22.02
21.98
21.95
21.92
21.89
21.86
21.84
21.81
21.78
21.75
21.72
21.69
21.67
21.64
21.61
21.59
21.56
21.53
21.51
21.48
21.46
21.43
21.41
21.38
21.36
21.33
21.31
21.29
21.26
21.24
21.22
21.2
21.18
21.16
21.14
21.12
21.1
21.08
21.07
21.05
21.04
21.02
21.01
21
20.99
20.99
20.98
20.98
20.98
20.98
20.98
20.99
21
21.02
21.04
21.06
21.09
21.12
21.16
21.2
21.25
21.3
21.37
21.43
21.51
21.59
21.68
21.78
21.89
22
22.12
28.06
28.03
27.98
27.91
27.83
27.73
27.62
27.5
27.38
27.25
27.13
27
26.86
26.73
26.6
26.48
26.35
26.22
26.1
25.98
25.86
25.75
25.64
25.53
25.42
25.32
25.21
25.11
25.02
24.92
24.83
24.74
24.65
24.56
24.48
24.4
24.32
24.24
24.16
24.09
24.01
23.94
23.87
23.8
23.73
23.67
23.6
23.54
23.48
23.42
23.36
23.3
23.24
23.18
23.13
23.07
23.02
22.97
22.92
22.87
22.82
22.77
22.72
22.67
22.63
22.58
22.54
22.49
22.45
22.41
22.37
22.33
22.29
22.25
22.21
22.17
22.14
22.1
22.06
22.03
22
21.96
21.93
21.9
21.86
21.83
21.8
21.77
21.74
21.71
21.68
21.65
21.62
21.6
21.57
21.54
21.51
21.49
21.46
21.44
21.41
21.39
21.36
21.34
21.31
21.29
21.27
21.24
21.22
21.2
21.18
21.16
21.14
21.12
21.1
21.08
21.06
21.04
21.02
21
20.99
20.97
20.96
20.94
20.93
20.92
20.91
20.9
20.89
20.88
20.87
20.87
20.87
20.86
20.87
20.87
20.87
20.88
20.89
20.91
20.92
20.94
20.97
21
21.03
21.07
21.11
21.16
21.21
21.27
21.33
21.41
21.48
21.57
21.66
21.76
21.86
21.98
22.1
22.22
27.8
27.77
27.72
27.64
27.56
27.46
27.35
27.23
27.1
26.97
26.84
26.71
26.58
26.45
26.32
26.19
26.06
25.93
25.81
25.69
25.57
25.45
25.34
25.23
25.12
25.02
24.91
24.81
24.71
24.62
24.53
24.44
24.35
24.26
24.18
24.09
24.01
23.93
23.86
23.78
23.71
23.64
23.57
23.5
23.43
23.36
23.3
23.23
23.17
23.11
23.05
22.99
22.93
22.88
22.82
22.77
22.71
22.66
22.61
22.56
22.51
22.46
22.41
22.37
22.32
22.28
22.23
22.19
22.15
22.11
22.06
22.02
21.99
21.95
21.91
21.87
21.84
21.8
21.77
21.73
21.7
21.66
21.63
21.6
21.57
21.54
21.51
21.48
21.45
21.42
21.4
21.37
21.34
21.32
21.29
21.27
21.24
21.22
21.19
21.17
21.15
21.13
21.1
21.08
21.06
21.04
21.02
21
20.98
20.96
20.95
20.93
20.91
20.9
20.88
20.87
20.85
20.84
20.82
20.81
20.8
20.79
20.78
20.77
20.76
20.76
20.75
20.75
20.75
20.75
20.75
20.75
20.75
20.76
20.77
20.78
20.79
20.81
20.83
20.85
20.88
20.91
20.94
20.98
21.02
21.07
21.12
21.18
21.24
21.31
21.38
21.46
21.55
21.64
21.74
21.84
21.95
22.07
22.2
22.33
27.54
27.51
27.46
27.38
27.29
27.19
27.08
26.96
26.83
26.7
26.57
26.44
26.3
26.17
26.04
25.91
25.78
25.65
25.52
25.4
25.28
25.17
25.05
24.94
24.83
24.73
24.62
24.52
24.43
24.33
24.24
24.15
24.06
23.97
23.89
23.8
23.72
23.64
23.57
23.49
23.42
23.35
23.27
23.21
23.14
23.07
23.01
22.94
22.88
22.82
22.76
22.7
22.64
22.59
22.53
22.48
22.42
22.37
22.32
22.27
22.22
22.17
22.12
22.08
22.03
21.99
21.94
21.9
21.86
21.82
21.78
21.74
21.7
21.66
21.62
21.59
21.55
21.52
21.48
21.45
21.42
21.39
21.35
21.32
21.29
21.27
21.24
21.21
21.18
21.16
21.13
21.11
21.08
21.06
21.03
21.01
20.99
20.97
20.95
20.93
20.91
20.89
20.87
20.85
20.83
20.81
20.8
20.78
20.77
20.75
20.74
20.72
20.71
20.7
20.69
20.68
20.67
20.66
20.65
20.64
20.64
20.63
20.63
20.62
20.62
20.62
20.62
20.62
20.63
20.63
20.64
20.65
20.66
20.68
20.69
20.71
20.73
20.76
20.79
20.82
20.85
20.89
20.93
20.98
21.03
21.08
21.14
21.21
21.28
21.36
21.44
21.52
21.62
21.72
21.82
21.93
22.05
22.17
22.3
22.43
27.29
27.26
27.2
27.13
27.04
26.94
26.82
26.7
26.57
26.44
26.31
26.17
26.04
25.9
25.77
25.64
25.51
25.38
25.25
25.13
25.01
24.89
24.78
24.67
24.56
24.45
24.35
24.25
24.15
24.05
23.96
23.87
23.78
23.69
23.61
23.53
23.45
23.37
23.29
23.21
23.14
23.07
23
22.93
22.86
22.79
22.73
22.67
22.6
22.54
22.48
22.42
22.36
22.31
22.25
22.2
22.15
22.09
22.04
21.99
21.94
21.89
21.85
21.8
21.75
21.71
21.67
21.62
21.58
21.54
21.5
21.46
21.43
21.39
21.35
21.32
21.28
21.25
21.22
21.18
21.15
21.12
21.09
21.06
21.04
21.01
20.98
20.96
20.93
20.91
20.88
20.86
20.84
20.82
20.79
20.77
20.75
20.74
20.72
20.7
20.68
20.67
20.65
20.63
20.62
20.61
20.59
20.58
20.57
20.56
20.55
20.54
20.53
20.52
20.51
20.51
20.5
20.5
20.49
20.49
20.49
20.49
20.49
20.5
20.5
20.51
20.51
20.52
20.53
20.54
20.56
20.57
20.59
20.61
20.64
20.66
20.69
20.73
20.76
20.8
20.84
20.89
20.94
20.99
21.05
21.11
21.18
21.25
21.33
21.42
21.5
21.6
21.7
21.8
21.91