/*--------------------------------*- C++ -*----------------------------------*\
| =========                 |                                                 |
| \\      /  F ield         | OpenFOAM: The Open Source CFD Toolbox           |
|  \\    /   O peration     | Version:  5.x                                   |
|   \\  /    A nd           | Web:      www.OpenFOAM.org                      |
|    \\/     M anipulation  |                                                 |
\*---------------------------------------------------------------------------*/
FoamFile
{
    version     2.0;
    format      ascii;
    class       volScalarField;
    location    "170";
    object      gamma;
}
// * * * * * * * * * * * * * * * * * * * * * * * * * * * * * * * * * * * * * //

dimensions      [0 0 0 0 0 0 0];

internalField   nonuniform List<scalar> 
86400
(
1.751e-07
2.255e-07
3.801e-07
8.007e-07
2e-06
3.461e-06
4.189e-06
4.742e-06
5.466e-06
5.002e-06
7.04e-06
7.907e-06
7.991e-06
5.184e-06
3.653e-06
3.682e-06
9.352e-06
2.724e-05
5.463e-05
7.317e-05
8.55e-05
0.0001258
0.0003077
0.0004922
0.0006119
0.0009605
0.0009364
0.0009985
0.00101
0.0008965
0.0007352
0.0006426
0.0006424
0.0007267
0.001022
0.001755
0.002596
0.003271
0.002826
0.002749
0.002295
0.002227
0.001893
0.001312
0.001189
0.00153
0.002525
0.003714
0.005155
0.004613
0.004509
0.004732
0.005161
0.005967
0.00682
0.008688
0.01117
0.012
0.01111
0.009773
0.007586
0.007442
0.007331
0.008113
0.01072
0.015
0.01606
0.01588
0.01172
0.0102
0.01236
0.01847
0.02166
0.01927
0.01685
0.01514
0.01324
0.01518
0.01852
0.01767
0.01708
0.0149
0.01402
0.01621
0.0227
0.02579
0.02746
0.02476
0.0249
0.02425
0.01914
0.01881
0.0196
0.02554
0.02855
0.03021
0.02417
0.0222
0.02135
0.01991
0.01777
0.01278
0.008991
0.005567
0.003585
0.003698
0.005698
0.008834
0.006999
0.00397
0.001819
0.001184
0.001246
0.001561
0.001586
0.001443
0.001304
0.001197
0.001176
0.001178
0.001164
0.001122
0.0009843
0.0008106
0.0006953
0.0006478
0.0005952
0.0005751
0.0005362
0.0004702
0.0003801
0.000397
0.0003222
0.0002004
0.0001313
9.651e-05
0.0001069
0.0001739
0.0001182
3.947e-05
1.399e-05
6.884e-06
6.516e-06
4.547e-06
1.097e-06
1.61e-07
2.76e-08
3.851e-09
1.385e-09
1.787e-09
3.14e-09
2.115e-08
3.295e-07
3.02e-06
2.155e-05
9.587e-05
0.0001832
0.0004104
0.08804
0.9988
2.335e-07
2.511e-07
3.776e-07
6.906e-07
1.785e-06
3.116e-06
3.618e-06
3.456e-06
2.74e-06
2.054e-06
2.867e-06
4.031e-06
6.405e-06
7.787e-06
6.384e-06
4.627e-06
9.619e-06
2.705e-05
6.677e-05
0.0001659
0.0002321
0.0003014
0.000497
0.0007489
0.0009555
0.001254
0.001359
0.001539
0.001806
0.001456
0.001216
0.00109
0.001169
0.001409
0.002122
0.003668
0.005966
0.008452
0.008459
0.008264
0.006375
0.005293
0.004458
0.003199
0.002406
0.002694
0.003584
0.004968
0.007425
0.008224
0.008874
0.0103
0.01254
0.01476
0.01239
0.009793
0.0078
0.006035
0.004795
0.004776
0.00416
0.004022
0.003662
0.003597
0.004087
0.006515
0.008043
0.009526
0.008478
0.009007
0.01199
0.01695
0.0138
0.009551
0.006232
0.006262
0.008892
0.01549
0.02176
0.02138
0.01894
0.01616
0.01762
0.02165
0.03284
0.04005
0.04638
0.04385
0.04788
0.05303
0.05062
0.05275
0.05169
0.04726
0.04005
0.03255
0.02317
0.01931
0.01751
0.01549
0.01531
0.01559
0.01726
0.01555
0.01039
0.008273
0.009554
0.01203
0.01087
0.007176
0.003115
0.001818
0.001324
0.001161
0.0009889
0.001005
0.001361
0.002263
0.003493
0.00403
0.004157
0.004051
0.003575
0.00296
0.002591
0.002485
0.002279
0.002175
0.001946
0.001648
0.001335
0.001086
0.0006784
0.0004187
0.0003062
0.0002213
0.0002212
0.0002488
0.0001501
4.501e-05
1.946e-05
7.579e-06
4.111e-06
2.239e-06
6.065e-07
1.713e-07
5.989e-08
2.665e-08
3.845e-08
8.689e-08
2.275e-07
1.132e-06
7.918e-06
4.75e-05
0.0004301
0.004237
0.03301
0.5548
0.9518
0.9996
3.832e-07
3.708e-07
4.972e-07
7.554e-07
1.772e-06
2.814e-06
2.933e-06
2.453e-06
1.542e-06
1.327e-06
1.997e-06
4.214e-06
7.781e-06
1.331e-05
1.072e-05
9.44e-06
2.277e-05
6.972e-05
0.0001295
0.0002952
0.000292
0.000333
0.0005439
0.000902
0.0009972
0.001499
0.001967
0.00275
0.003958
0.003581
0.002855
0.003006
0.003104
0.003076
0.003264
0.003887
0.005099
0.006654
0.005383
0.004719
0.003395
0.003088
0.002745
0.002562
0.002179
0.002804
0.004574
0.007109
0.01118
0.01388
0.01183
0.009123
0.007292
0.006291
0.004492
0.004152
0.003479
0.002602
0.001979
0.00203
0.002034
0.002235
0.002433
0.003038
0.003115
0.00389
0.004544
0.005515
0.00524
0.006508
0.008297
0.008632
0.00546
0.004247
0.003848
0.006464
0.01402
0.02779
0.0375
0.03968
0.03465
0.02726
0.029
0.03491
0.05671
0.06846
0.0804
0.08045
0.07255
0.05978
0.04269
0.03081
0.02113
0.02012
0.01896
0.01806
0.01674
0.01669
0.01465
0.01331
0.01475
0.01853
0.02552
0.02681
0.02146
0.01786
0.01592
0.01786
0.01639
0.01136
0.006486
0.004921
0.003105
0.002364
0.001946
0.002164
0.002742
0.003893
0.004662
0.00399
0.003518
0.003642
0.003327
0.002836
0.002475
0.002287
0.001989
0.001793
0.001505
0.001342
0.001223
0.0009571
0.0005171
0.0002407
0.0001524
0.0001165
0.000158
0.0002214
0.0001765
7.043e-05
2.645e-05
1.029e-05
7.188e-06
4.896e-06
2.165e-06
8.793e-07
4.029e-07
3.05e-07
8.001e-07
2.734e-06
7.897e-06
2.732e-05
0.000162
0.001096
0.01135
0.1874
0.8456
0.9896
0.9995
1
6.613e-07
6.214e-07
6.732e-07
8.004e-07
1.522e-06
2.006e-06
1.69e-06
1.221e-06
8.043e-07
9.745e-07
1.365e-06
1.688e-06
1.798e-06
4.63e-06
5.774e-06
9.489e-06
2.434e-05
3.993e-05
3.574e-05
4.311e-05
3.396e-05
2.667e-05
6.041e-05
0.0001282
0.0001467
0.0002767
0.0005329
0.0009542
0.001878
0.00238
0.001961
0.002683
0.003392
0.003804
0.003879
0.004057
0.004449
0.005611
0.003908
0.003421
0.002859
0.003041
0.003855
0.004749
0.003158
0.002812
0.002549
0.002796
0.003712
0.005209
0.003936
0.002653
0.002275
0.002121
0.00156
0.001497
0.001149
0.0008563
0.0007761
0.001033
0.001255
0.001695
0.002177
0.002493
0.002345
0.002796
0.002942
0.003294
0.003303
0.005187
0.008315
0.008501
0.006038
0.00542
0.004265
0.007891
0.01708
0.02838
0.02864
0.03089
0.02596
0.02165
0.02235
0.02381
0.02892
0.03171
0.03628
0.03772
0.03958
0.04399
0.04728
0.0452
0.03227
0.0294
0.02487
0.02219
0.02152
0.02297
0.02013
0.02023
0.02054
0.02152
0.03169
0.03466
0.02538
0.01953
0.01284
0.0124
0.01186
0.01084
0.006367
0.005521
0.003187
0.002203
0.001718
0.002308
0.003811
0.006489
0.008009
0.00657
0.005311
0.005671
0.00537
0.004754
0.004241
0.003887
0.003331
0.00296
0.002601
0.002455
0.002428
0.001936
0.001018
0.0004688
0.0002678
0.0001293
0.0001019
7.426e-05
4.795e-05
2.866e-05
1.325e-05
5.78e-06
5.079e-06
5.156e-06
4.305e-06
3.641e-06
3.686e-06
5.747e-06
3.027e-05
0.0001568
0.0007336
0.002782
0.01327
0.0855
0.6699
0.9618
0.998
1
1
1
1.407e-06
1.526e-06
1.472e-06
1.544e-06
1.972e-06
1.719e-06
8.95e-07
6.986e-07
6.042e-07
9.792e-07
1.13e-06
7.034e-07
3.49e-07
9.597e-07
1.753e-06
7.948e-06
4.151e-05
2.966e-05
7.595e-06
5.322e-06
4.791e-06
4.181e-06
1.63e-05
3.526e-05
4.482e-05
0.0001272
0.0004452
0.001585
0.004077
0.004399
0.001844
0.00151
0.001314
0.001318
0.00139
0.001359
0.001133
0.001642
0.001719
0.00248
0.002169
0.00181
0.0009407
0.0005912
0.0002634
0.0002172
0.0001704
0.0002151
0.0004172
0.001075
0.001316
0.001365
0.001201
0.001283
0.001099
0.001176
0.001016
0.0008229
0.001036
0.001822
0.002898
0.004548
0.006861
0.007879
0.00543
0.003784
0.003016
0.002594
0.002294
0.003334
0.005341
0.004771
0.004632
0.005679
0.006394
0.009736
0.01759
0.01844
0.01511
0.0178
0.01554
0.01293
0.01387
0.01665
0.02282
0.03062
0.03732
0.03576
0.03417
0.03574
0.03499
0.04066
0.03303
0.0303
0.02304
0.02181
0.01528
0.01521
0.01474
0.01314
0.008761
0.00474
0.003972
0.00449
0.005266
0.00928
0.01054
0.009255
0.008341
0.01182
0.008611
0.008924
0.005858
0.004428
0.003206
0.003083
0.00289
0.003044
0.002417
0.002062
0.001656
0.001797
0.001738
0.001636
0.001542
0.001464
0.001292
0.001194
0.00113
0.001172
0.00124
0.0009007
0.0003975
0.0001518
4.528e-05
1.577e-05
1.114e-05
1.268e-05
1.012e-05
8.685e-06
5.585e-06
4.325e-06
6.306e-06
1.244e-05
2.423e-05
4.509e-05
8.635e-05
0.0002091
0.001331
0.006104
0.02748
0.1156
0.5363
0.9093
0.9911
0.9996
1
1
1
1
2.124e-06
3.03e-06
2.898e-06
3.03e-06
2.176e-06
1.297e-06
5.339e-07
4.876e-07
6.685e-07
1.727e-06
2.098e-06
6.559e-07
1.68e-07
3.092e-07
1.54e-06
1.021e-05
4.424e-05
1.933e-05
4.106e-06
3.476e-06
6.236e-06
8.145e-06
3.955e-05
2.494e-05
1.268e-05
1.59e-05
4.62e-05
0.0001946
0.001035
0.001078
0.0003657
0.0002398
0.0002041
0.0002285
0.0004143
0.0005051
0.0003124
0.0003433
0.0003789
0.0003625
0.0001803
9.544e-05
2.472e-05
9.304e-06
3.821e-06
1.481e-06
3.077e-07
2.916e-07
6.411e-07
2.837e-06
6.66e-06
1.781e-05
3.898e-05
7.11e-05
9.333e-05
8.941e-05
6.584e-05
7.721e-05
0.0002805
0.001146
0.003387
0.005144
0.004355
0.003557
0.002174
0.001481
0.002358
0.003318
0.003405
0.005254
0.008839
0.006878
0.00631
0.00649
0.00498
0.004605
0.003591
0.002888
0.002676
0.004632
0.00734
0.01417
0.02142
0.03025
0.04086
0.05041
0.05205
0.04677
0.04854
0.06146
0.05984
0.03412
0.01072
0.003332
0.0009541
0.0005368
0.0002688
0.0002876
0.000315
0.0005259
0.0006594
0.0006357
0.0005487
0.0005499
0.0005711
0.001166
0.001505
0.002324
0.003285
0.00343
0.0021
0.002106
0.001709
0.001695
0.001408
0.001285
0.001104
0.001068
0.0009121
0.0008441
0.0006706
0.0006679
0.0006261
0.0006056
0.0005806
0.0005211
0.0004391
0.0003557
0.000275
0.0002052
0.0001905
0.0001648
0.0001193
8.32e-05
3.806e-05
1.413e-05
7.563e-06
7.048e-06
6.83e-06
9.102e-06
8.894e-06
1.152e-05
2.426e-05
7.941e-05
0.0002844
0.0009507
0.002882
0.009244
0.04204
0.1884
0.7081
0.9296
0.9884
0.9992
1
1
1
1
1
1
2.442e-06
4.56e-06
3.931e-06
3.438e-06
1.934e-06
1.067e-06
4.353e-07
6.899e-07
2.159e-06
7.615e-06
7.85e-06
1.774e-06
1.776e-07
1.935e-07
5.1e-07
5.312e-06
4.082e-05
4.625e-05
1.752e-05
2.116e-05
5.388e-05
6.836e-05
0.0002146
4.813e-05
1.382e-05
8.835e-06
1.842e-05
5.953e-05
0.000432
0.0004811
0.0001674
7.246e-05
6.845e-05
0.0001058
0.0002261
0.0002462
9.765e-05
7.678e-05
0.0001209
0.0001237
4.015e-05
9.768e-06
9.162e-07
1.576e-07
5.62e-08
8.626e-09
8.35e-10
5.804e-10
1.315e-09
9.899e-09
4.119e-08
1.606e-07
5.268e-07
1.515e-06
2.736e-06
2.976e-06
2.86e-06
5.817e-06
5.599e-05
0.0004034
0.00223
0.004616
0.004022
0.004195
0.004287
0.003138
0.006199
0.009488
0.009032
0.008588
0.01267
0.005429
0.002821
0.002082
0.001722
0.002073
0.001485
0.0009672
0.0005096
0.0005759
0.001035
0.003929
0.008965
0.01089
0.01428
0.01729
0.02159
0.02955
0.06617
0.1317
0.09975
0.04954
0.0131
0.002919
0.0005412
0.0002438
7.642e-05
6.222e-05
4.602e-05
0.0001089
0.0001943
0.0002286
0.0002348
0.0001343
6.755e-05
6.168e-05
6.424e-05
7.726e-05
0.0002379
0.0003854
0.0005216
0.0008429
0.000963
0.001236
0.001283
0.001178
0.0007937
0.0006309
0.0004741
0.0005125
0.0004872
0.0004473
0.0003411
0.0002204
0.000164
0.0001348
0.0001258
0.0001151
9.561e-05
5.879e-05
5.206e-05
5.77e-05
6.604e-05
7.126e-05
5.079e-05
2.851e-05
2.831e-05
4.887e-05
8.043e-05
0.0001911
0.0003661
0.0007352
0.00194
0.006947
0.02238
0.07085
0.2339
0.6294
0.8888
0.9746
0.9964
0.9996
1
1
1
1
1
1
1
1
3.988e-06
7.077e-06
4.534e-06
3.436e-06
2.104e-06
1.295e-06
7.978e-07
2.546e-06
7.405e-06
1.328e-05
1.319e-05
2.434e-06
2.263e-07
1.986e-07
4.348e-07
3.392e-06
2.956e-05
8.679e-05
0.0001399
0.0005343
0.001209
0.001232
0.002043
0.000447
8.676e-05
1.719e-05
2.288e-05
4.344e-05
0.0002396
0.0003408
0.0001786
0.0001506
0.0001501
0.0002365
0.0003936
0.0003563
0.0001317
0.0001276
0.0003056
0.0001543
2.791e-05
2.649e-06
2.149e-07
2.29e-08
9.719e-09
7.882e-10
4.983e-11
2.851e-11
7.415e-11
6.548e-10
3.907e-09
2.655e-08
1.865e-07
9.848e-07
1.829e-06
7.873e-07
3.317e-07
4.188e-07
3.857e-06
4.212e-05
0.0005397
0.00231
0.003022
0.004175
0.005464
0.004669
0.008451
0.009055
0.004873
0.001612
0.001142
0.0004688
0.0002223
0.0001784
0.0002642
0.000375
0.0003515
0.0006601
0.0006014
0.001266
0.003165
0.01832
0.05426
0.09608
0.1289
0.3193
0.7566
0.9195
0.9817
0.992
0.9873
0.9648
0.8731
0.485
0.07589
0.01909
0.002766
0.00115
0.0004271
0.0003654
0.0002807
0.000453
0.0001884
3.055e-05
5.169e-06
2.854e-06
6.039e-06
1.315e-05
4.859e-05
3.725e-05
4.1e-05
5.317e-05
8.7e-05
0.0001568
0.0001816
0.0001746
0.0001919
0.0002023
0.0002003
0.0003285
0.0004768
0.0005893
0.0005122
0.0003023
0.0001972
0.0001578
0.0001645
0.0001645
0.0001489
8.532e-05
7.599e-05
9.352e-05
0.0001961
0.0003691
0.0005399
0.0004824
0.0005374
0.0008524
0.00184
0.005924
0.01781
0.05229
0.1546
0.4559
0.7747
0.937
0.984
0.9969
0.9996
0.9999
1
1
1
1
1
1
1
1
1
1
6.283e-06
8.1e-06
4.152e-06
2.829e-06
1.831e-06
1.505e-06
2.09e-06
5.884e-06
9.85e-06
1.15e-05
6.389e-06
1.635e-06
4.808e-07
5.264e-07
1.219e-06
5.306e-06
1.666e-05
5.484e-05
0.000143
0.0002581
0.0006402
0.00127
0.003906
0.002632
0.0009602
0.0002642
0.0001202
0.0001442
0.0003775
0.0005875
0.0004349
0.0006303
0.0005474
0.0007056
0.0005819
0.000281
6.501e-05
9.403e-05
0.0002161
4.972e-05
5.872e-06
4.319e-07
4.965e-08
8.481e-09
8.42e-09
1.42e-09
2.276e-10
1.539e-10
3.676e-10
7.628e-10
2.332e-09
8.98e-09
4.552e-08
2.121e-07
4.513e-07
2.355e-07
8.237e-08
8.182e-08
4.802e-07
6.574e-06
0.000179
0.001632
0.004497
0.007273
0.006692
0.002639
0.001946
0.001196
0.000459
0.0001229
8.965e-05
5.32e-05
3.798e-05
4.758e-05
0.00025
0.001461
0.004726
0.02555
0.06449
0.2151
0.6719
0.9082
0.968
0.9847
0.9918
0.9975
0.9996
0.9999
1
1
0.9999
0.9992
0.9976
0.9923
0.9882
0.9782
0.929
0.7459
0.1953
0.04579
0.01755
0.01387
0.003389
0.0002883
4.459e-05
8.8e-06
7.389e-06
8.463e-06
1.483e-05
3.779e-06
2.499e-06
1.481e-06
1.82e-06
4.177e-06
1.525e-05
5.925e-05
0.0001403
0.0001421
0.0001059
9.77e-05
0.000127
0.0002184
0.0002549
0.0001784
0.0001237
9.597e-05
0.0001263
0.0001666
0.0002066
0.0001708
0.0002229
0.0004145
0.001089
0.002993
0.007913
0.01547
0.03391
0.09031
0.2801
0.665
0.8714
0.9564
0.9847
0.9947
0.9987
0.9998
1
1
1
1
1
1
1
1
1
1
1
1
1
1
5.035e-06
5.031e-06
2.995e-06
2.277e-06
2.109e-06
2.804e-06
3.662e-06
5.881e-06
6.146e-06
5.277e-06
2.051e-06
9.875e-07
8.237e-07
1.376e-06
4.368e-06
1.099e-05
3.774e-05
4.925e-05
7.484e-05
4.953e-05
9.061e-05
0.000271
0.001462
0.003682
0.003208
0.001115
0.0002846
0.00029
0.0003457
0.0007599
0.001258
0.003082
0.00291
0.003042
0.0009137
0.0002849
0.0001094
0.0001873
0.0001727
1.679e-05
1.362e-06
9.376e-08
2.158e-08
1.179e-08
1.705e-08
5.265e-09
3.029e-09
3.586e-09
3.705e-09
2.376e-09
2.204e-09
2.851e-09
1.654e-08
1.308e-07
3.709e-07
2.9e-07
1.603e-07
1.346e-07
4.413e-07
5.615e-06
0.000111
0.001308
0.002994
0.003362
0.001669
0.0003862
0.0001303
9.173e-05
6.455e-05
3.712e-05
6.562e-05
0.0001046
0.0003558
0.00171
0.01359
0.07539
0.3534
0.7833
0.9354
0.9832
0.9969
0.9994
0.9998
0.9999
0.9999
1
1
1
1
1
1
1
1
1
1
1
0.9999
0.9994
0.9966
0.9838
0.946
0.8851
0.6532
0.07441
0.005781
0.0009679
0.0003404
0.0001788
0.0001095
8.586e-06
1.151e-06
2.03e-07
1.159e-07
9.354e-08
5.616e-07
5.829e-06
2.705e-05
5.328e-05
6.199e-05
4.617e-05
7.567e-05
0.0002752
0.0005089
0.000638
0.000815
0.0009995
0.001902
0.003944
0.007488
0.008889
0.01395
0.02649
0.06373
0.2161
0.6127
0.829
0.9339
0.975
0.991
0.9977
0.9995
0.9999
1
1
1
1
1
1
1
1
1
1
1
1
1
1
1
1
1
1
4.262e-06
3.355e-06
2.627e-06
3.199e-06
4.918e-06
3.635e-06
1.718e-06
1.199e-06
7.737e-07
7.517e-07
6.581e-07
6.666e-07
1.721e-06
6.524e-06
1.552e-05
3.992e-05
7.179e-05
3.483e-05
2.913e-05
1.042e-05
1.733e-05
3.94e-05
0.00041
0.002578
0.005426
0.003428
0.002317
0.001673
0.001006
0.001504
0.001647
0.002152
0.001317
0.0009525
0.0003037
0.0001088
7.987e-05
0.0002634
0.000162
1.847e-05
9.472e-07
9.021e-08
1.342e-08
7.058e-09
6.209e-09
7.535e-09
4.452e-08
1.532e-07
1.644e-07
3.33e-08
4.262e-09
1.519e-09
8.945e-09
1.748e-07
1.529e-06
4.907e-06
4.942e-06
3.148e-06
5.341e-06
4.468e-05
0.0003154
0.001153
0.001233
0.0007257
0.0002165
6.452e-05
3.121e-05
5.183e-05
0.0001217
0.0002614
0.0009434
0.007325
0.04553
0.3873
0.8698
0.9705
0.9942
0.9987
0.9997
0.9999
1
1
1
1
1
1
1
1
1
1
1
1
1
1
1
1
1
1
1
0.9999
0.9997
0.9994
0.9981
0.9926
0.9719
0.8705
0.4658
0.06925
0.01313
0.001007
8.367e-05
5.899e-06
1.422e-06
6.809e-07
3.822e-06
3.836e-05
0.0001602
0.0002582
0.0003253
0.0002112
0.0003587
0.001587
0.004265
0.008323
0.01531
0.0213
0.03278
0.07118
0.2282
0.6112
0.8722
0.9546
0.9825
0.9936
0.998
0.9994
0.9998
0.9999
1
1
1
1
1
1
1
1
1
1
1
1
1
1
1
1
1
1
1
1
1
1
3.865e-06
2.957e-06
2.949e-06
4.655e-06
7.993e-06
5.692e-06
1.367e-06
5.412e-07
2.02e-07
3.955e-07
5.424e-07
2.466e-06
1.04e-05
2.377e-05
5.223e-05
0.0001501
0.0001414
8.457e-05
4.793e-05
1.413e-05
2.226e-05
6.482e-05
0.0005946
0.00262
0.005803
0.004744
0.005862
0.004414
0.003512
0.00363
0.003414
0.002584
0.001109
0.0004422
0.0002496
0.0001332
0.0001544
0.0005967
0.0001903
1.673e-05
6.817e-07
3.587e-08
3.385e-09
1.957e-09
1.02e-09
2.873e-09
3.452e-08
4.037e-07
4.753e-07
8.482e-08
5.185e-09
1.87e-09
1.578e-08
6.266e-07
1.081e-05
4.05e-05
5.71e-05
5.163e-05
5.765e-05
0.0001479
0.0001546
0.0001244
6.698e-05
4.368e-05
2.263e-05
3.613e-05
9.451e-05
0.0006197
0.005202
0.03432
0.2469
0.8292
0.9665
0.9937
0.999
0.9998
1
1
1
1
1
1
1
1
1
1
1
1
1
1
1
1
1
1
1
1
1
1
1
1
1
1
1
1
0.9999
0.9995
0.9977
0.9934
0.9752
0.8934
0.5486
0.05838
0.0136
0.00582
0.01039
0.02906
0.03945
0.03294
0.03118
0.01998
0.02447
0.05939
0.1424
0.5184
0.8328
0.9442
0.9804
0.9906
0.996
0.9984
0.9996
0.9999
1
1
1
1
1
1
1
1
1
1
1
1
1
1
1
1
1
1
1
1
1
1
1
1
1
1
1
1
1.83e-06
1.733e-06
1.986e-06
3.078e-06
7.412e-06
6.471e-06
1.361e-06
5.044e-07
4.203e-07
9.382e-07
2.538e-06
1.709e-05
3.855e-05
7.79e-05
0.0001256
0.0001882
0.000167
0.0001304
7.049e-05
2.623e-05
3.831e-05
0.0001039
0.0005768
0.001576
0.003777
0.004131
0.009017
0.008769
0.009765
0.007927
0.008263
0.004862
0.002499
0.001322
0.0007114
0.0004289
0.0005354
0.001428
0.0002836
3.194e-05
1.77e-06
1.022e-07
5.507e-09
3.631e-09
1.653e-09
7.273e-09
1.53e-07
3.393e-06
3.223e-06
7.097e-07
2.36e-08
5.272e-09
2.426e-08
8.438e-07
1.052e-05
4.846e-05
9.101e-05
9.975e-05
0.0001091
0.0001309
6.461e-05
3.209e-05
1.442e-05
2.407e-05
7.326e-05
0.0005582
0.006093
0.1158
0.7375
0.9466
0.9891
0.9983
0.9997
0.9999
1
1
1
1
1
1
1
1
1
1
1
1
1
1
1
1
1
1
1
1
1
1
1
1
1
1
1
1
1
1
1
1
1
0.9999
0.9998
0.9996
0.9989
0.9975
0.9958
0.9925
0.9922
0.9932
0.9902
0.9887
0.9897
0.9884
0.9909
0.9938
0.9959
0.9983
0.9996
0.9999
1
1
1
1
1
1
1
1
1
1
1
1
1
1
1
1
1
1
1
1
1
1
1
1
1
1
1
1
1
1
1
1
1
1
2.098e-06
1.828e-06
2.327e-06
2.977e-06
7.259e-06
1.02e-05
3.395e-06
2.314e-06
1.797e-06
4.219e-06
1.14e-05
5.678e-05
7.459e-05
0.000106
0.0001013
0.0001178
0.0001283
0.0001229
9.566e-05
8.742e-05
0.0001626
0.0003542
0.0007989
0.001095
0.001386
0.001358
0.003635
0.004113
0.006528
0.009123
0.012
0.00938
0.007552
0.003797
0.001549
0.0006698
0.0005172
0.001026
0.0004485
0.0001543
1.883e-05
1.88e-06
1.38e-07
9.336e-08
5.091e-08
2.26e-07
2.506e-06
4.613e-05
5.996e-05
2.346e-05
1.213e-06
3.725e-07
8.942e-07
7.267e-06
3.853e-05
6.626e-05
6.195e-05
5.839e-05
4.691e-05
4.85e-05
3.854e-05
3.789e-05
8.07e-05
0.0006417
0.007767
0.1537
0.8375
0.9775
0.9959
0.9994
0.9999
1
1
1
1
1
1
1
1
1
1
1
1
1
1
1
1
1
1
1
1
1
1
1
1
1
1
1
1
1
1
1
1
1
1
1
1
1
1
1
1
1
1
1
1
1
1
1
1
1
1
1
1
1
1
1
1
1
1
1
1
1
1
1
1
1
1
1
1
1
1
1
1
1
1
1
1
1
1
1
1
1
1
1
1
1
1
1
1
1
4.532e-06
3.763e-06
5.858e-06
3.265e-06
5.413e-06
4.419e-06
2.926e-06
6.044e-06
1.331e-05
1.221e-05
1.69e-05
3.271e-05
5.023e-05
6.952e-05
8.157e-05
4.33e-05
1.147e-05
3.551e-06
1.68e-06
1.438e-06
4.708e-06
2.181e-05
0.0001074
0.0002814
0.0005097
0.0005763
0.001184
0.001209
0.001576
0.001819
0.00261
0.004021
0.006598
0.004707
0.001777
0.0005972
0.0003457
0.0007452
0.000734
0.0007314
0.0002911
6.707e-05
1.038e-05
8.059e-06
4.617e-06
2.063e-05
9.821e-05
0.0008098
0.0012
0.0007069
9.928e-05
2.627e-05
2.232e-05
3.464e-05
6.416e-05
4.24e-05
2.944e-05
2.429e-05
3.111e-05
6.958e-05
0.0002505
0.001052
0.008761
0.1765
0.8463
0.976
0.9971
0.9997
0.9999
1
1
1
1
1
1
1
1
1
1
1
1
1
1
1
1
1
1
1
1
1
1
1
1
1
1
1
1
1
1
1
1
1
1
1
1
1
1
1
1
1
1
1
1
1
1
1
1
1
1
1
1
1
1
1
1
1
1
1
1
1
1
1
1
1
1
1
1
1
1
1
1
1
1
1
1
1
1
1
1
1
1
1
1
1
1
1
1
1
1
1
1.233e-05
1.139e-05
2.225e-05
5.94e-06
4.638e-06
3.4e-06
4.872e-06
2.14e-05
5.982e-05
3.107e-05
1.956e-05
1.39e-05
1.138e-05
4.286e-05
3.05e-05
4.254e-06
6.098e-07
9.628e-08
3.942e-08
3.452e-08
2.14e-07
3.079e-06
3.334e-05
0.0001709
0.0005732
0.0005922
0.0009791
0.001158
0.001083
0.001109
0.001806
0.004047
0.009147
0.009469
0.00362
0.0009945
0.0005705
0.0009401
0.001404
0.002487
0.002783
0.001455
0.000556
0.0005657
0.0003535
0.0003624
0.0005211
0.00142
0.003034
0.004761
0.002858
0.0009769
0.000541
0.0001988
0.0001432
5.429e-05
4.216e-05
5.294e-05
0.0002396
0.001012
0.0153
0.188
0.8226
0.9726
0.997
0.9996
1
1
1
1
1
1
1
1
1
1
1
1
1
1
1
1
1
1
1
1
1
1
1
1
1
1
1
1
1
1
1
1
1
1
1
1
1
1
1
1
1
1
1
1
1
1
1
1
1
1
1
1
1
1
1
1
1
1
1
1
1
1
1
1
1
1
1
1
1
1
1
1
1
1
1
1
1
1
1
1
1
1
1
1
1
1
1
1
1
1
1
1
1
1
2.425e-05
2.601e-05
8.891e-05
2.147e-05
5.26e-06
2.637e-06
6.735e-06
3.235e-05
9.651e-05
5.391e-05
1.846e-05
1.06e-05
1.374e-05
7.283e-05
1.327e-05
6.3e-07
7.55e-08
1.353e-08
9.753e-09
9.47e-09
8.081e-08
1.368e-06
2.005e-05
0.0001578
0.001119
0.0008829
0.001596
0.00176
0.001046
0.0007618
0.0009137
0.002339
0.006282
0.007975
0.003919
0.001691
0.001603
0.002142
0.00385
0.005879
0.007892
0.006961
0.005949
0.004358
0.002329
0.001119
0.000837
0.001307
0.002963
0.004998
0.003333
0.001326
0.000713
0.00028
0.0002585
0.000175
0.0002935
0.00107
0.01049
0.1297
0.8125
0.968
0.9969
0.9997
1
1
1
1
1
1
1
1
1
1
1
1
1
1
1
1
1
1
1
1
1
1
1
1
1
1
1
1
1
1
1
1
1
1
1
1
1
1
1
1
1
1
1
1
1
1
1
1
1
1
1
1
1
1
1
1
1
1
1
1
1
1
1
1
1
1
1
1
1
1
1
1
1
1
1
1
1
1
1
1
1
1
1
1
1
1
1
1
1
1
1
1
1
1
1
1
3.649e-05
4.823e-05
0.0001285
3.681e-05
6.759e-06
7.846e-06
1.866e-05
0.000104
0.0001531
7.033e-05
1.648e-05
7.545e-06
1.05e-05
3.998e-05
2.271e-06
1.56e-07
4.092e-08
2.156e-08
3.347e-08
3.736e-08
2.241e-07
1.765e-06
2.8e-05
0.0001872
0.001452
0.00116
0.001897
0.002377
0.001818
0.001613
0.001609
0.002911
0.006771
0.007904
0.004404
0.00285
0.003752
0.004646
0.006076
0.006613
0.009197
0.0111
0.01937
0.01686
0.008915
0.002774
0.001003
0.0006841
0.001096
0.002019
0.001724
0.001229
0.00112
0.0007873
0.0009969
0.002494
0.01294
0.08489
0.7614
0.9654
0.9957
0.9996
1
1
1
1
1
1
1
1
1
1
1
1
1
1
1
1
1
1
1
1
1
1
1
1
1
1
1
1
1
1
1
1
1
1
1
1
1
1
1
1
1
1
1
1
1
1
1
1
1
1
1
1
1
1
1
1
1
1
1
1
1
1
1
1
1
1
1
1
1
1
1
1
1
1
1
1
1
1
1
1
1
1
1
1
1
1
1
1
1
1
1
1
1
1
1
1
1
1
2.9e-05
4.767e-05
8.923e-05
2.972e-05
4.869e-06
1.204e-05
5.119e-05
0.0004136
0.0004231
0.0001576
3.338e-05
1.072e-05
7.707e-06
1.58e-05
8.85e-07
1.127e-07
1.495e-07
3.226e-07
8.074e-07
9.174e-07
2.998e-06
1.072e-05
0.0001318
0.0007191
0.004232
0.003088
0.004136
0.003923
0.002789
0.001931
0.002058
0.003541
0.008272
0.01069
0.007005
0.005526
0.008515
0.01125
0.01055
0.006151
0.004655
0.004059
0.007438
0.008803
0.006157
0.002656
0.001436
0.0005048
0.0003416
0.0004562
0.000428
0.0006533
0.001786
0.0034
0.008881
0.05701
0.6243
0.9358
0.9942
0.9995
1
1
1
1
1
1
1
1
1
1
1
1
1
1
1
1
1
1
1
1
1
1
1
1
1
1
1
1
1
1
1
1
1
1
1
1
1
1
1
1
1
1
1
1
1
1
1
1
1
1
1
1
1
1
1
1
1
1
1
1
1
1
1
1
1
1
1
1
1
1
1
1
1
1
1
1
1
1
1
1
1
1
1
1
1
1
1
1
1
1
1
1
1
1
1
1
1
1
1
1
4.196e-05
5.064e-05
6.961e-05
3.136e-05
6.568e-06
3.682e-05
0.0001437
0.0008112
0.0007455
0.0003854
0.0001021
4.11e-05
2.112e-05
2.19e-05
2.08e-06
6.692e-07
2.593e-06
9.156e-06
2.351e-05
2.452e-05
5.595e-05
0.0001068
0.0004369
0.001561
0.00437
0.003808
0.003959
0.004081
0.00337
0.002523
0.002661
0.004842
0.01228
0.01853
0.01332
0.009317
0.009794
0.008493
0.005641
0.002582
0.001145
0.0008811
0.001355
0.002729
0.004102
0.003902
0.003014
0.0008385
0.0004128
0.0002932
0.0004066
0.0008313
0.005978
0.02162
0.2979
0.8929
0.9878
0.9987
0.9999
1
1
1
1
1
1
1
1
1
1
1
1
1
1
1
1
1
1
1
1
1
1
1
1
1
1
1
1
1
1
1
1
1
1
1
1
1
1
1
1
1
1
1
1
1
1
1
1
1
1
1
1
1
1
1
1
1
1
1
1
1
1
1
1
1
1
1
1
1
1
1
1
1
1
1
1
1
1
1
1
1
1
1
1
1
1
1
1
1
1
1
1
1
1
1
1
1
1
1
1
1
8.907e-05
9.045e-05
0.0001168
3.866e-05
1.162e-05
5.333e-05
0.0001247
0.0006428
0.0007407
0.0006037
0.0001815
0.0001552
0.0001163
9.81e-05
1.905e-05
9.362e-06
2.54e-05
5.621e-05
0.0001102
0.0002176
0.0004203
0.0005535
0.001026
0.001431
0.001525
0.002079
0.003727
0.003013
0.002272
0.001471
0.001035
0.001631
0.005752
0.01345
0.01411
0.0103
0.008241
0.007177
0.004871
0.002605
0.0009243
0.000485
0.0004934
0.000851
0.001575
0.002631
0.003515
0.001329
0.00113
0.0008058
0.001715
0.004688
0.07907
0.6826
0.967
0.9976
0.9999
1
1
1
1
1
1
1
1
1
1
1
1
1
1
1
1
1
1
1
1
1
1
1
1
1
1
1
1
1
1
1
1
1
1
1
1
1
1
1
1
1
1
1
1
1
1
1
1
1
1
1
1
1
1
1
1
1
1
1
1
1
1
1
1
1
1
1
1
1
1
1
1
1
1
1
1
1
1
1
1
1
1
1
1
1
1
1
1
1
1
1
1
1
1
1
1
1
1
1
1
1
1
1
0.0001979
0.0001716
0.0001863
4.706e-05
2.175e-05
5.273e-05
5.416e-05
0.0002731
0.0005428
0.0006977
0.0003142
0.0005949
0.0003628
0.000368
0.0001597
0.0001467
0.0002344
0.0002689
0.0002129
0.0003905
0.0009042
0.0009897
0.001399
0.00114
0.0008717
0.001555
0.00497
0.004882
0.003401
0.002045
0.0009197
0.0009774
0.00243
0.007884
0.01482
0.01579
0.01386
0.01006
0.00637
0.003897
0.001659
0.0006989
0.0004807
0.0006176
0.0007151
0.00144
0.002908
0.002341
0.004721
0.01029
0.05367
0.531
0.9502
0.9954
0.9998
1
1
1
1
1
1
1
1
1
1
1
1
1
1
1
1
1
1
1
1
1
1
1
1
1
1
1
0.9999
0.9993
0.9959
0.9939
0.9911
0.9878
0.9879
0.9867
0.9867
0.9908
0.9925
0.994
0.9961
0.998
0.9994
0.9998
1
1
1
1
1
1
1
1
1
1
1
1
1
1
1
1
1
1
1
1
1
1
1
1
1
1
1
1
1
1
1
1
1
1
1
1
1
1
1
1
1
1
1
1
1
1
1
1
1
1
1
1
1
1
1
1
1
1
1
1
1
1
0.0003757
0.0002843
0.0003482
7.336e-05
4.506e-05
2.395e-05
1.192e-05
5.887e-05
0.0003035
0.0007638
0.0009728
0.001935
0.001196
0.001484
0.0009917
0.001087
0.0007222
0.0005562
0.0002431
0.0003855
0.0006395
0.0006722
0.001188
0.0009106
0.001454
0.003189
0.01141
0.01082
0.007621
0.003498
0.001326
0.0008119
0.001207
0.00442
0.01285
0.02399
0.02658
0.01493
0.008428
0.005624
0.002876
0.001524
0.001059
0.0008536
0.0008389
0.001491
0.003814
0.008201
0.03436
0.2131
0.8285
0.981
0.9992
1
1
1
1
1
1
1
1
1
1
1
1
1
1
1
1
1
1
1
1
1
1
1
1
1
0.9999
0.9996
0.9968
0.9838
0.9505
0.8632
0.5984
0.2854
0.1146
0.06341
0.03599
0.02256
0.0213
0.02359
0.04562
0.1382
0.4484
0.6843
0.8923
0.9699
0.9918
0.9973
0.9993
0.9998
1
1
1
1
1
1
1
1
1
1
1
1
1
1
1
1
1
1
1
1
1
1
1
1
1
1
1
1
1
1
1
1
1
1
1
1
1
1
1
1
1
1
1
1
1
1
1
1
1
1
1
1
1
1
1
1
1
1
0.0003064
0.000253
0.0003155
7.074e-05
9.468e-05
2.477e-05
1.214e-05
3.564e-05
0.0002339
0.0004783
0.001141
0.00212
0.001716
0.002471
0.002302
0.003212
0.002131
0.001228
0.0006923
0.0004818
0.0006033
0.0005689
0.0008828
0.0007898
0.001199
0.001932
0.006406
0.008465
0.009583
0.00648
0.002237
0.0006867
0.000462
0.0009816
0.003806
0.01194
0.01872
0.01026
0.00561
0.004367
0.004088
0.003626
0.003356
0.002566
0.002577
0.005719
0.02056
0.1072
0.7007
0.9536
0.9963
0.9998
1
1
1
1
1
1
1
1
1
1
1
1
1
1
1
1
1
1
1
1
1
1
1
1
0.9995
0.9958
0.973
0.8672
0.6182
0.2122
0.05942
0.01867
0.005375
0.001435
0.0006233
0.0006164
0.0003965
0.0003039
0.0002758
0.0002776
0.0006541
0.002255
0.006464
0.01381
0.03474
0.07083
0.1902
0.5094
0.7632
0.9262
0.9878
0.998
0.9996
0.9999
1
1
1
1
1
1
1
1
1
1
1
1
1
1
1
1
1
1
1
1
1
1
1
1
1
1
1
1
1
1
1
1
1
1
1
1
1
1
1
1
1
1
1
1
1
1
1
1
1
1
1
0.9998
0.9991
0.9964
0.0002589
0.0003041
0.0005302
0.0001018
0.0001595
2.137e-05
1.143e-05
2.096e-05
0.0003195
0.0004834
0.001288
0.001433
0.00155
0.002271
0.001896
0.002343
0.002436
0.002061
0.001541
0.0006272
0.0003171
0.0001926
0.0004064
0.0008323
0.001666
0.001588
0.003419
0.004918
0.00563
0.004094
0.001761
0.0004689
0.0002572
0.0005621
0.002208
0.008558
0.0163
0.01143
0.006206
0.005515
0.007197
0.007584
0.007885
0.006951
0.009272
0.0239
0.154
0.7708
0.9764
0.9983
0.9999
1
1
1
1
1
1
1
1
1
1
1
1
1
1
1
1
1
1
1
1
1
1
0.9999
0.9982
0.9845
0.8964
0.6245
0.1191
0.02659
0.005687
0.001945
0.00058
0.0001908
6.289e-05
2.85e-05
1.188e-05
1.865e-05
2.22e-05
1.759e-05
1.773e-05
2.102e-05
6.717e-05
0.0002555
0.0005382
0.0007825
0.001152
0.001444
0.002425
0.00712
0.01704
0.04929
0.177
0.6711
0.8976
0.9797
0.9968
0.9994
0.9999
0.9999
1
1
1
1
1
1
1
1
1
1
1
1
1
1
1
1
1
1
1
1
1
1
1
1
1
1
1
1
1
1
1
1
1
1
1
1
1
1
1
1
1
1
1
0.9999
0.9995
0.9968
0.9839
0.9241
0.804
0.6948
0.0003058
0.0004358
0.001051
0.0001713
0.0001977
2.19e-05
1.798e-05
3.803e-05
0.0003124
0.000439
0.001134
0.001349
0.00236
0.002985
0.001408
0.001441
0.002437
0.004242
0.003039
0.0006472
0.0001074
5.001e-05
0.0001474
0.0005955
0.00192
0.001847
0.002166
0.003265
0.003874
0.00264
0.00137
0.0004129
0.0002322
0.0005311
0.001568
0.005561
0.009209
0.006663
0.004318
0.00492
0.008641
0.01161
0.01469
0.01702
0.03865
0.384
0.8999
0.9926
0.9997
1
1
1
1
1
1
1
1
1
1
1
1
1
1
1
1
1
1
1
1
1
1
0.9999
0.9981
0.9795
0.8266
0.2035
0.02472
0.007155
0.001659
0.0005908
0.0002281
0.0001373
4.075e-05
1.345e-05
3.309e-06
3.67e-06
2.921e-06
8e-06
1.178e-05
1.617e-05
1.639e-05
1.617e-05
2.843e-05
6.908e-05
9.058e-05
9.423e-05
8.968e-05
8.092e-05
9.092e-05
0.0001993
0.0003824
0.0007581
0.003157
0.01734
0.04177
0.1765
0.6564
0.8602
0.9612
0.9928
0.9995
1
1
1
1
1
1
1
1
1
1
1
1
1
1
1
1
1
1
1
1
1
1
1
1
1
1
1
1
1
1
1
1
1
1
1
1
1
1
0.9999
0.9996
0.997
0.9858
0.9302
0.7231
0.3006
0.1018
0.03447
0.01632
0.005205
0.0001837
0.0002773
0.001059
0.0002092
0.0002167
3.246e-05
2.672e-05
6.272e-05
0.0005398
0.0005824
0.0008049
0.001087
0.003164
0.004415
0.001176
0.0006138
0.0006496
0.001797
0.002018
0.000754
7.94e-05
3.599e-05
7.489e-05
0.0004754
0.001815
0.001984
0.001879
0.002491
0.002112
0.001272
0.0007247
0.0004255
0.0003834
0.001296
0.002899
0.00556
0.005332
0.003435
0.001633
0.001517
0.002519
0.004821
0.01397
0.05878
0.5068
0.9407
0.9954
0.9999
1
1
1
1
1
1
1
1
1
1
1
1
1
1
1
1
1
1
1
1
1
0.9998
0.9966
0.9685
0.6932
0.1018
0.01567
0.003874
0.001279
0.0005971
0.0002047
0.0001381
8.073e-05
7.082e-05
2.286e-05
1.522e-05
8.043e-06
1.137e-05
1.075e-05
3.252e-05
5.175e-05
8.211e-05
7.505e-05
5.712e-05
7.244e-05
7.589e-05
6.312e-05
5.813e-05
4.697e-05
2.918e-05
1.757e-05
2.036e-05
2.01e-05
2.521e-05
8.135e-05
0.0002977
0.000746
0.003405
0.02544
0.08514
0.4414
0.9173
0.9959
0.9999
1
1
1
1
1
1
1
1
1
1
1
1
1
1
1
1
1
1
1
1
1
1
1
1
1
1
1
1
1
1
1
1
0.9999
0.9997
0.9989
0.9956
0.9841
0.9352
0.7942
0.3371
0.09844
0.02673
0.009238
0.002779
0.0008494
0.0002767
9.94e-05
9.389e-06
6.818e-05
0.000106
0.0006607
0.000196
0.0002094
8.309e-05
6.991e-05
0.0001468
0.001484
0.0009739
0.0006273
0.001028
0.003614
0.005537
0.001488
0.0005367
0.0003908
0.001169
0.001598
0.001457
0.0001672
0.000106
0.000112
0.000626