/*--------------------------------*- C++ -*----------------------------------*\
| =========                 |                                                 |
| \\      /  F ield         | OpenFOAM: The Open Source CFD Toolbox           |
|  \\    /   O peration     | Version:  5.x                                   |
|   \\  /    A nd           | Web:      www.OpenFOAM.org                      |
|    \\/     M anipulation  |                                                 |
\*---------------------------------------------------------------------------*/
FoamFile
{
    version     2.0;
    format      ascii;
    class       volScalarField;
    location    "80";
    object      gamma;
}
// * * * * * * * * * * * * * * * * * * * * * * * * * * * * * * * * * * * * * //

dimensions      [0 0 0 0 0 0 0];

internalField   nonuniform List<scalar> 
86400
(
0.0002108
0.0002524
0.0003404
0.0005288
0.0008645
0.001314
0.001756
0.002432
0.003745
0.005742
0.009371
0.01488
0.02409
0.03435
0.04549
0.05005
0.05102
0.0408
0.03248
0.02713
0.023
0.01956
0.01808
0.01602
0.01514
0.0178
0.01885
0.01949
0.01861
0.01807
0.01753
0.0184
0.01944
0.0204
0.02149
0.02351
0.02301
0.02109
0.01734
0.01543
0.01387
0.01403
0.01339
0.0122
0.01209
0.01302
0.01511
0.01658
0.01756
0.01693
0.01689
0.01714
0.01735
0.01729
0.01705
0.01755
0.01834
0.01876
0.01878
0.01839
0.01704
0.01679
0.01592
0.01603
0.01764
0.02019
0.02255
0.02363
0.02133
0.01981
0.02045
0.02193
0.02387
0.02187
0.02002
0.01792
0.016
0.01612
0.01832
0.02079
0.02529
0.02789
0.02756
0.02638
0.0259
0.02444
0.02491
0.02464
0.02532
0.02609
0.02553
0.028
0.03163
0.03864
0.04272
0.04502
0.04162
0.04014
0.03931
0.03846
0.03751
0.03832
0.03545
0.03099
0.02358
0.02222
0.02428
0.03332
0.03985
0.04462
0.04197
0.04044
0.03749
0.03291
0.02667
0.0232
0.02183
0.02142
0.02029
0.01877
0.01749
0.0166
0.01674
0.0166
0.0164
0.01633
0.01606
0.01566
0.01498
0.01388
0.01247
0.01252
0.01317
0.01445
0.01594
0.01758
0.01877
0.02008
0.01484
0.00878
0.005801
0.006118
0.008079
0.01134
0.01101
0.008606
0.007318
0.00818
0.009516
0.01022
0.01007
0.01045
0.01275
0.01358
0.01401
0.01455
0.01482
0.02157
0.6915
0.9879
0.0002669
0.0002924
0.0003717
0.0005256
0.0008516
0.001365
0.001982
0.002966
0.00466
0.006822
0.01126
0.01804
0.02878
0.04112
0.05414
0.05852
0.05706
0.04828
0.0419
0.03812
0.03688
0.03702
0.03634
0.03329
0.03074
0.02976
0.02702
0.02377
0.02097
0.01901
0.01832
0.0202
0.02291
0.02587
0.0287
0.03169
0.03193
0.03092
0.02811
0.02626
0.02391
0.0233
0.02225
0.02055
0.01986
0.02078
0.02214
0.02344
0.0246
0.02465
0.02552
0.02675
0.02787
0.02851
0.02808
0.02627
0.02415
0.02228
0.02068
0.01991
0.01915
0.01932
0.01852
0.01889
0.02088
0.02541
0.02852
0.03008
0.0278
0.02668
0.0277
0.02806
0.02695
0.02326
0.02074
0.02021
0.02281
0.02709
0.03157
0.03393
0.0381
0.0408
0.0433
0.04485
0.04626
0.04531
0.04658
0.04604
0.04764
0.05009
0.0509
0.05484
0.05849
0.06126
0.06151
0.06042
0.05567
0.05236
0.04927
0.04835
0.04885
0.05297
0.05509
0.05033
0.03882
0.03463
0.03595
0.04318
0.05285
0.0601
0.05745
0.05711
0.05764
0.05661
0.05288
0.04998
0.04863
0.04831
0.04591
0.04148
0.03827
0.03585
0.03555
0.03536
0.03508
0.03501
0.03425
0.03315
0.03135
0.02896
0.02614
0.02651
0.02818
0.03247
0.03652
0.03868
0.03826
0.03705
0.02833
0.0189
0.01575
0.01625
0.01811
0.02212
0.02317
0.02048
0.01934
0.02201
0.02596
0.02602
0.02354
0.02224
0.02488
0.02938
0.03986
0.05862
0.08833
0.1874
0.7209
0.9555
0.000391
0.0004088
0.0004774
0.0006256
0.001012
0.001667
0.002517
0.003941
0.005995
0.008797
0.01426
0.02331
0.03813
0.05674
0.0729
0.07496
0.06919
0.058
0.0503
0.0475
0.0467
0.04893
0.04964
0.0459
0.04503
0.04723
0.04499
0.04019
0.03528
0.03048
0.02967
0.03411
0.03834
0.04075
0.04069
0.04009
0.03816
0.03709
0.03475
0.03365
0.03199
0.03184
0.03036
0.02922
0.02882
0.03048
0.0323
0.03418
0.03624
0.03389
0.03048
0.02692
0.02412
0.02271
0.0231
0.02192
0.02087
0.01972
0.01933
0.01938
0.01993
0.021
0.02108
0.02302
0.02497
0.02756
0.02968
0.03092
0.02926
0.02843
0.02883
0.02702
0.02498
0.02378
0.02471
0.03083
0.04109
0.05148
0.05871
0.06242
0.06634
0.06876
0.07225
0.07602
0.08155
0.08135
0.08313
0.08217
0.07856
0.07382
0.0667
0.06159
0.06167
0.06647
0.07
0.07216
0.07094
0.06535
0.06066
0.05956
0.0602
0.06466
0.06887
0.06359
0.0518
0.04842
0.05285
0.06385
0.08018
0.08784
0.08674
0.09203
0.09847
0.1013
0.09775
0.09465
0.08984
0.0863
0.07866
0.06982
0.06257
0.05951
0.05876
0.05861
0.05833
0.0584
0.0573
0.05554
0.0522
0.0487
0.04501
0.04582
0.04854
0.05418
0.06147
0.06534
0.06508
0.06273
0.05339
0.04277
0.03927
0.04015
0.04342
0.04902
0.05127
0.04649
0.0432
0.04503
0.05013
0.04914
0.04783
0.04661
0.05868
0.082
0.1433
0.293
0.5306
0.7403
0.8894
0.9641
0.0006808
0.0006782
0.0007555
0.0009543
0.00151
0.002412
0.003515
0.005267
0.007776
0.01144
0.01828
0.01949
0.02205
0.0255
0.0331
0.03688
0.04493
0.03065
0.01934
0.01459
0.01322
0.01324
0.01624
0.01835
0.02117
0.02687
0.03148
0.03265
0.03329
0.03209
0.0325
0.04
0.04739
0.0518
0.05036
0.04709
0.0436
0.04365
0.04312
0.04486
0.04672
0.05041
0.05377
0.05649
0.05094
0.04425
0.03673
0.03132
0.02924
0.0263
0.02197
0.01897
0.01781
0.01681
0.01729
0.01584
0.01411
0.01358
0.01549
0.01804
0.02088
0.0239
0.02582
0.02806
0.02967
0.03083
0.03076
0.0304
0.02868
0.03162
0.03587
0.035
0.03531
0.03757
0.03942
0.05361
0.07431
0.08957
0.09311
0.09742
0.09646
0.0971
0.1038
0.1111
0.1186
0.1234
0.1278
0.1298
0.1279
0.1266
0.1216
0.112
0.1112
0.1173
0.1205
0.1221
0.1234
0.1108
0.1003
0.09628
0.09598
0.1019
0.112
0.1078
0.09144
0.079
0.07688
0.08535
0.09668
0.1019
0.1002
0.1036
0.1084
0.125
0.1372
0.152
0.1567
0.159
0.145
0.1297
0.1145
0.1108
0.1092
0.1092
0.1092
0.1098
0.1084
0.1059
0.1016
0.09675
0.09188
0.09443
0.1015
0.1051
0.1073
0.1008
0.09099
0.08079
0.07959
0.07878
0.08195
0.08359
0.08628
0.08965
0.09663
0.09849
0.1002
0.1051
0.1199
0.1239
0.137
0.1535
0.2132
0.3537
0.601
0.784
0.8899
0.9514
0.9815
0.9936
0.001348
0.001391
0.001571
0.002014
0.002989
0.004312
0.005318
0.007198
0.009778
0.01245
0.01654
0.0103
0.006288
0.005765
0.008959
0.01226
0.02329
0.01369
0.006799
0.004196
0.004181
0.004641
0.006573
0.00682
0.008514
0.01384
0.02452
0.03819
0.05066
0.04469
0.03531
0.03342
0.03142
0.03021
0.02957
0.02745
0.02418
0.02705
0.03348
0.04402
0.04724
0.04274
0.03176
0.02491
0.01824
0.01434
0.01256
0.01301
0.01574
0.01806
0.01655
0.0135
0.014
0.01472
0.01576
0.01391
0.01149
0.01149
0.01451
0.01991
0.02678
0.03405
0.04087
0.04462
0.04258
0.03587
0.03199
0.02821
0.02502
0.02622
0.03042
0.03063
0.03664
0.04789
0.05845
0.07479
0.09795
0.1075
0.1091
0.1226
0.1254
0.1282
0.1385
0.1525
0.169
0.1888
0.205
0.215
0.2187
0.2216
0.2081
0.1972
0.2056
0.2267
0.2569
0.2698
0.2738
0.2408
0.2135
0.1875
0.1574
0.1386
0.1404
0.1376
0.1292
0.1246
0.1221
0.128
0.1315
0.1275
0.1146
0.1107
0.1092
0.1305
0.1365
0.1417
0.1337
0.1292
0.1124
0.1075
0.1001
0.09959
0.09747
0.09705
0.09705
0.09792
0.09809
0.0979
0.09696
0.09569
0.09462
0.09613
0.1007
0.09669
0.09286
0.08487
0.07935
0.07715
0.08444
0.09068
0.1002
0.108
0.1151
0.1254
0.143
0.1524
0.1616
0.1706
0.206
0.2447
0.3382
0.4667
0.6043
0.7388
0.8571
0.9296
0.9684
0.9871
0.9948
0.9979
0.002344
0.002665
0.003269
0.004571
0.006369
0.007677
0.008011
0.009093
0.01096
0.0119
0.01349
0.005587
0.001994
0.001163
0.002412
0.004069
0.01026
0.006878
0.003436
0.002063
0.002601
0.003163
0.004591
0.003703
0.003608
0.004614
0.007137
0.01341
0.02301
0.02208
0.01643
0.01346
0.01176
0.01139
0.01332
0.01367
0.01066
0.01027
0.01183
0.01211
0.009378
0.006921
0.003711
0.00221
0.001446
0.0008803
0.0005547
0.0006089
0.0009552
0.001543
0.001935
0.002332
0.00326
0.005502
0.007416
0.006631
0.004627
0.004233
0.005599
0.009841
0.01656
0.02426
0.02885
0.03266
0.03202
0.02649
0.02739
0.02657
0.02506
0.02761
0.03601
0.0387
0.05109
0.06951
0.08215
0.09702
0.117
0.1316
0.148
0.1851
0.2121
0.2387
0.2682
0.3092
0.3567
0.4114
0.456
0.4873
0.5083
0.525
0.5487
0.5615
0.5982
0.6398
0.6707
0.6845
0.6836
0.646
0.5952
0.5144
0.3972
0.2883
0.2515
0.2294
0.2187
0.2036
0.1708
0.1648
0.1559
0.143
0.113
0.09644
0.08233
0.09337
0.09682
0.09949
0.0926
0.08699
0.07752
0.07627
0.0714
0.07023
0.06839
0.06788
0.06817
0.06931
0.07134
0.07427
0.07736
0.08023
0.0827
0.0866
0.09494
0.0949
0.09503
0.08836
0.08878
0.09197
0.1058
0.1168
0.1304
0.1448
0.1616
0.1855
0.2237
0.2585
0.3038
0.3695
0.4635
0.5606
0.6702
0.7588
0.8366
0.9005
0.9477
0.9752
0.989
0.995
0.9977
0.999
0.003837
0.004685
0.0061
0.008489
0.01123
0.01234
0.01191
0.01222
0.01399
0.0121
0.01019
0.003436
0.0008085
0.0004715
0.0008793
0.002034
0.007205
0.008768
0.005547
0.004228
0.006472
0.007371
0.00934
0.006022
0.004314
0.004295
0.005597
0.008585
0.01478
0.01464
0.01132
0.007633
0.006511
0.006991
0.009157
0.009772
0.00658
0.005257
0.005853
0.004903
0.002538
0.001173
0.0003646
0.0001453
8.695e-05
3.85e-05
2.298e-05
3.168e-05
7.971e-05
0.0001961
0.000355
0.0003827
0.0004078
0.0005471
0.000561
0.0006162
0.0007203
0.001152
0.002466
0.005871
0.01066
0.01782
0.02406
0.0331
0.03654
0.02941
0.0318
0.03257
0.03383
0.0372
0.05314
0.05881
0.09081
0.1319
0.1611
0.1826
0.2126
0.2396
0.2755
0.3508
0.4211
0.4818
0.5384
0.6027
0.6701
0.7285
0.7739
0.803
0.8214
0.8315
0.8404
0.8485
0.864
0.8756
0.8819
0.884
0.8812
0.8658
0.8411
0.7857
0.6847
0.5485
0.4531
0.4211
0.4175
0.393
0.3301
0.2991
0.2628
0.2282
0.1899
0.157
0.1243
0.1232
0.1125
0.09845
0.08281
0.07577
0.06917
0.07042
0.06764
0.06616
0.06477
0.06451
0.06562
0.06773
0.07098
0.07539
0.0806
0.08596
0.09135
0.09902
0.113
0.1203
0.1305
0.1444
0.163
0.186
0.2273
0.262
0.298
0.3458
0.4037
0.4653
0.5337
0.5915
0.6469
0.7004
0.7542
0.8063
0.8561
0.9005
0.9383
0.9652
0.9822
0.9913
0.9955
0.9975
0.9986
0.9992
0.007368
0.008815
0.0111
0.01476
0.01845
0.01875
0.01788
0.01779
0.01596
0.008998
0.005632
0.001744
0.0003981
0.0003111
0.0006861
0.002072
0.008911
0.01715
0.01541
0.01694
0.02185
0.02331
0.02599
0.01735
0.01137
0.00696
0.005142
0.005456
0.007917
0.008724
0.008088
0.006992
0.006264
0.007479
0.01061
0.01233
0.008486
0.006754
0.006519
0.003004
0.000904
0.0002198
5.194e-05
1.882e-05
1.694e-05
8.488e-06
5.227e-06
6.189e-06
9.427e-06
2.138e-05
4.318e-05
4.816e-05
5.977e-05
9.064e-05
9.104e-05
9.759e-05
0.0001545
0.0003764
0.001159
0.003912
0.008569
0.01589
0.02465
0.04132
0.04985
0.04427
0.0482
0.05285
0.06043
0.07869
0.1214
0.1468
0.2104
0.2859
0.3431
0.3858
0.4375
0.5057
0.5628
0.6303
0.68
0.7239
0.7643
0.8099
0.854
0.8915
0.9281
0.9526
0.9638
0.9672
0.9666
0.9627
0.9627
0.9645
0.9653
0.9654
0.9625
0.9544
0.9385
0.9033
0.8396
0.7632
0.7014
0.6631
0.6375
0.5982
0.5372
0.4973
0.4781
0.476
0.473
0.4239
0.3397
0.2828
0.2154
0.1622
0.1372
0.1265
0.121
0.127
0.1252
0.1208
0.1189
0.1207
0.1258
0.1332
0.1432
0.1557
0.1701
0.1858
0.2029
0.2262
0.2645
0.302
0.3499
0.4085
0.4612
0.5086
0.5601
0.5989
0.6351
0.6734
0.7098
0.745
0.7812
0.8184
0.8543
0.8855
0.911
0.9304
0.9486
0.9659
0.98
0.989
0.9942
0.9967
0.9979
0.9987
0.9991
0.9993
0.0146
0.01631
0.01825
0.02204
0.02539
0.02485
0.02508
0.01947
0.01151
0.004653
0.001962
0.0008117
0.0003984
0.0005397
0.001429
0.003676
0.006859
0.00887
0.007497
0.008324
0.01452
0.02767
0.04564
0.04848
0.04155
0.02283
0.01176
0.007652
0.00782
0.008805
0.01018
0.009173
0.007258
0.007964
0.009916
0.01144
0.008786
0.007457
0.007854
0.002148
0.0003795
5.622e-05
1.094e-05
5.074e-06
1.018e-05
8.418e-06
6.213e-06
5.99e-06
5.921e-06
7.123e-06
1.514e-05
2.165e-05
3.635e-05
4.466e-05
3.45e-05
2.54e-05
4.471e-05
0.0001583
0.0007545
0.003839
0.01086
0.02035
0.03286
0.05549
0.07036
0.06839
0.08135
0.1114
0.1431
0.2073
0.2993
0.3525
0.4373
0.5165
0.5884
0.6547
0.7064
0.7563
0.7883
0.8166
0.8423
0.8678
0.8916
0.9175
0.9411
0.9601
0.9774
0.9876
0.9911
0.9915
0.9899
0.9864
0.9843
0.9851
0.9872
0.9881
0.9874
0.9835
0.9738
0.9506
0.9124
0.8684
0.8287
0.7952
0.7701
0.7444
0.7204
0.7112
0.7253
0.7503
0.7781
0.7836
0.7568
0.6904
0.5781
0.4386
0.3387
0.3015
0.2934
0.2977
0.2916
0.2847
0.2861
0.2978
0.3189
0.3475
0.3848
0.4242
0.4622
0.4981
0.5328
0.5694
0.6107
0.6573
0.7038
0.7459
0.7786
0.803
0.8217
0.839
0.8565
0.8745
0.8911
0.9062
0.9205
0.9343
0.9472
0.9579
0.9664
0.9725
0.9804
0.988
0.9933
0.9964
0.9979
0.9985
0.9989
0.9992
0.9994
0.9994
0.02516
0.02568
0.0277
0.03235
0.03469
0.03064
0.02243
0.0109
0.004398
0.001747
0.0007639
0.0005981
0.0006249
0.001304
0.003654
0.006345
0.005336
0.002919
0.001533
0.001359
0.00275
0.008206
0.02414
0.04644
0.05301
0.03116
0.01456
0.008769
0.007717
0.01061
0.0142
0.01238
0.008072
0.006901
0.00635
0.008009
0.009624
0.01093
0.01016
0.002046
0.0002686
3.152e-05
7.212e-06
5.036e-06
1.618e-05
2.256e-05
1.634e-05
9.686e-06
4.045e-06
2.658e-06
6.151e-06
1.404e-05
3.986e-05
6.047e-05
3.116e-05
1.453e-05
2.521e-05
0.0001082
0.0009437
0.006785
0.01882
0.03249
0.04571
0.07487
0.1037
0.1281
0.1743
0.2718
0.3921
0.5371
0.6247
0.6717
0.7066
0.7451
0.7793
0.8122
0.8377
0.8615
0.8764
0.8914
0.9064
0.9225
0.9409
0.96
0.9753
0.9855
0.9931
0.9966
0.9979
0.998
0.9972
0.9957
0.9945
0.9941
0.9946
0.9946
0.9936
0.9904
0.9838
0.9684
0.9488
0.9278
0.908
0.8867
0.8642
0.8409
0.8231
0.8169
0.8312
0.8572
0.8833
0.8942
0.8819
0.8407
0.7765
0.7061
0.6659
0.6603
0.6658
0.6649
0.6637
0.665
0.672
0.6848
0.7015
0.7196
0.7392
0.7583
0.7758
0.7919
0.808
0.8246
0.8416
0.8586
0.8746
0.8888
0.9011
0.9119
0.9215
0.9307
0.9395
0.9479
0.9552
0.9616
0.9674
0.9729
0.9778
0.9819
0.985
0.9871
0.9913
0.995
0.9975
0.9985
0.999
0.9991
0.9992
0.9994
0.9994
0.9992
0.03378
0.03313
0.03584
0.04247
0.0409
0.03086
0.01377
0.004476
0.001459
0.0006907
0.0004536
0.000633
0.001249
0.003482
0.006207
0.007246
0.002957
0.0006776
0.0002367
0.0002135
0.0006098
0.002569
0.01284
0.03348
0.04798
0.03399
0.02329
0.01597
0.01338
0.01645
0.01749
0.01095
0.004854
0.002534
0.002102
0.002622
0.004544
0.007606
0.008283
0.002427
0.0004065
5.454e-05
1.537e-05
1.314e-05
3.413e-05
4.746e-05
3.802e-05
1.901e-05
6.362e-06
3.626e-06
7.87e-06
2.371e-05
0.0001051
0.0001912
0.0001015
4.732e-05
8.823e-05
0.0004077
0.003729
0.02627
0.06493
0.08795
0.1145
0.172
0.2503
0.3685
0.4953
0.6005
0.671
0.731
0.7666
0.7968
0.8195
0.841
0.8587
0.8751
0.8902
0.9048
0.9196
0.9359
0.9505
0.9629
0.9752
0.9849
0.9915
0.9954
0.9979
0.9989
0.9993
0.9993
0.9991
0.9985
0.9978
0.997
0.9966
0.9958
0.9947
0.9915
0.9869
0.976
0.9653
0.9545
0.9449
0.9342
0.9237
0.9126
0.9033
0.8988
0.9037
0.9166
0.9304
0.9367
0.9308
0.9096
0.8757
0.8385
0.8177
0.8138
0.8172
0.818
0.8201
0.824
0.8307
0.8399
0.8509
0.8619
0.873
0.8835
0.893
0.9017
0.9107
0.9196
0.9284
0.9363
0.9432
0.949
0.9544
0.9594
0.964
0.9684
0.9724
0.9761
0.9794
0.9822
0.9848
0.9871
0.9891
0.9908
0.992
0.9926
0.9949
0.9969
0.9984
0.999
0.9993
0.9993
0.9994
0.9994
0.9992
0.9987
0.03803
0.03844
0.04286
0.04345
0.03057
0.01722
0.005936
0.001947
0.0008038
0.0007663
0.0007514
0.001747
0.0041
0.007293
0.008269
0.007039
0.002034
0.000376
0.0001109
8.283e-05
0.0002564
0.001816
0.01361
0.03405
0.04417
0.03014
0.02404
0.01925
0.01903
0.02286
0.02049
0.01069
0.003566
0.001607
0.001044
0.001256
0.002428
0.004182
0.004565
0.001849
0.000414
9.847e-05
3.847e-05
3.476e-05
5.28e-05
5.302e-05
3.919e-05
1.561e-05
4.533e-06
2.774e-06
6.073e-06
3.006e-05
0.0002501
0.0008718
0.000799
0.0005213
0.0008529
0.003028
0.01617
0.07102
0.1336
0.165
0.2144
0.314
0.4607
0.6063
0.7031
0.7657
0.801
0.825
0.8401
0.8556
0.8697
0.8809
0.8917
0.903
0.9166
0.9354
0.9555
0.969
0.9777
0.9833
0.989
0.9938
0.9971
0.9986
0.9993
0.9996
0.9997
0.9997
0.9996
0.9994
0.999
0.9982
0.9973
0.9957
0.9938
0.9911
0.9876
0.9808
0.9757
0.9709
0.9666
0.9611
0.9555
0.9493
0.9434
0.9391
0.9388
0.942
0.9463
0.9476
0.9427
0.9302
0.9135
0.8975
0.889
0.8888
0.8925
0.8949
0.8983
0.9025
0.9077
0.9138
0.9207
0.9278
0.9347
0.9411
0.9467
0.9516
0.9563
0.9607
0.965
0.9689
0.9723
0.9751
0.9777
0.9802
0.9824
0.9845
0.9863
0.9879
0.9893
0.9906
0.9917
0.9927
0.9936
0.9943
0.9948
0.995
0.9962
0.9973
0.9984
0.9989
0.9992
0.9992
0.9992
0.9991
0.9986
0.9974
0.03662
0.04031
0.04443
0.03678
0.01989
0.008969
0.00285
0.00118
0.0008797
0.001057
0.001631
0.004035
0.006955
0.008177
0.008316
0.005812
0.002204
0.0004588
0.0001354
8.165e-05
0.0002206
0.001389
0.01045
0.0266
0.03961
0.0336
0.03437
0.03345
0.03519
0.03784
0.02999
0.01565
0.006426
0.003025
0.001768
0.001783
0.003039
0.004459
0.004497
0.002544
0.001062
0.0003768
0.0002161
0.0001697
0.0001335
0.0001139
7.124e-05
4.3e-05
1.963e-05
1.782e-05
3.423e-05
0.0001201
0.0006741
0.002339
0.003448
0.004251
0.009457
0.02418
0.07843
0.2042
0.285
0.3467
0.4506
0.5635
0.6635
0.7518
0.8079
0.8419
0.8587
0.8677
0.8735
0.8816
0.8889
0.8951
0.9071
0.9218
0.9384
0.9613
0.9778
0.9855
0.9907
0.9934
0.9959
0.9977
0.999
0.9995
0.9997
0.9998
0.9999
0.9999
0.9998
0.9996
0.9993
0.9983
0.9968
0.9945
0.9924
0.9904
0.9885
0.9853
0.9831
0.9807
0.9782
0.9751
0.9718
0.9679
0.9639
0.9602
0.9577
0.9559
0.9546
0.9521
0.9476
0.9408
0.934
0.9291
0.9276
0.9295
0.9328
0.9356
0.9387
0.942
0.9463
0.9512
0.9562
0.961
0.9653
0.969
0.9723
0.9749
0.9774
0.9796
0.9818
0.9837
0.9854
0.9868
0.988
0.9892
0.9902
0.9912
0.992
0.9928
0.9934
0.994
0.9946
0.9951
0.9955
0.9959
0.9961
0.9961
0.9965
0.997
0.9976
0.9983
0.9987
0.9988
0.9988
0.9983
0.9971
0.995
0.035
0.04177
0.04635
0.03099
0.0142
0.00548
0.00229
0.001449
0.002296
0.002868
0.004284
0.006539
0.007493
0.006184
0.005858
0.005006
0.003566
0.0009913
0.000335
0.0001593
0.0003226
0.001442
0.008281
0.01851
0.02614
0.02664
0.03301
0.04041
0.0454
0.04777
0.03991
0.02704
0.01573
0.009486
0.005607
0.004855
0.006023
0.007482
0.007736
0.006497
0.004117
0.002206
0.001622
0.001317
0.0007881
0.0006722
0.0004945
0.0003608
0.0001992
0.0001787
0.0002141
0.000472
0.001548
0.005001
0.01047
0.02412
0.07123
0.1655
0.3037
0.4455
0.4868
0.5648
0.6684
0.7543
0.8083
0.8446
0.8662
0.8792
0.8842
0.8852
0.8848
0.8899
0.8945
0.8998
0.9138
0.9328
0.9523
0.9743
0.9866
0.9916
0.9944
0.9959
0.9973
0.9984
0.9993
0.9996
0.9998
0.9999
0.9999
0.9999
0.9998
0.9996
0.9992
0.9979
0.996
0.9932
0.991
0.9898
0.989
0.9879
0.9866
0.9852
0.9837
0.9819
0.9799
0.9775
0.9746
0.9716
0.9684
0.9649
0.9612
0.9574
0.9537
0.9508
0.9493
0.949
0.9499
0.9519
0.9544
0.9574
0.9608
0.9643
0.9681
0.9717
0.9749
0.9778
0.9804
0.9825
0.9843
0.9857
0.987
0.9881
0.9892
0.9902
0.9911
0.9919
0.9925
0.9931
0.9937
0.9941
0.9946
0.9949
0.9953
0.9956
0.9958
0.9961
0.9963
0.9965
0.9966
0.9965
0.9965
0.9966
0.9971
0.9978
0.9984
0.9986
0.9985
0.9976
0.9955
0.9923
0.03467
0.04381
0.04968
0.02474
0.01036
0.004135
0.002855
0.003442
0.007437
0.007053
0.008093
0.005382
0.005027
0.003335
0.003565
0.002641
0.001415
0.0003
8.644e-05
4.212e-05
8.664e-05
0.0003999
0.002493
0.006039
0.01146
0.01443
0.01907
0.02762
0.03493
0.03695
0.03368
0.02862
0.02447
0.02042
0.01554
0.013
0.01442
0.0161
0.01775
0.01923
0.01399
0.01012
0.007998
0.007684
0.005275
0.005745
0.004912
0.004158
0.002677
0.002617
0.002468
0.003307
0.007573
0.02289
0.06179
0.1591
0.3356
0.4668
0.5052
0.5459
0.6006
0.6827
0.7626
0.8186
0.8495
0.8667
0.8797
0.8897
0.8935
0.8932
0.8899
0.8912
0.8942
0.9012
0.9154
0.9357
0.9562
0.9766
0.9871
0.9917
0.994
0.9964
0.9979
0.9987
0.9994
0.9997
0.9998
0.9999
0.9999
0.9998
0.9996
0.9991
0.9982
0.9965
0.9948
0.9928
0.9918
0.9911
0.9903
0.9893
0.9883
0.9873
0.9862
0.9851
0.9837
0.9821
0.98
0.9775
0.9746
0.9711
0.9674
0.9638
0.9608
0.959
0.9586
0.9592
0.9607
0.9628
0.9656
0.9692
0.973
0.9764
0.9795
0.9821
0.9842
0.986
0.9876
0.9888
0.9899
0.9908
0.9915
0.9922
0.9928
0.9933
0.9938
0.9942
0.9946
0.9949
0.9952
0.9954
0.9957
0.9959
0.9961
0.9963
0.9964
0.9966
0.9967
0.9968
0.9968
0.9966
0.9965
0.9967
0.9971
0.9979
0.9984
0.9987
0.9986
0.9979
0.9963
0.9943
0.03312
0.0438
0.05378
0.02292
0.008672
0.003861
0.003861
0.007561
0.01742
0.01366
0.01112
0.005064
0.002977
0.002393
0.001925
0.0007179
0.0002906
5.239e-05
1.422e-05
7.755e-06
2.035e-05
0.0001483
0.001219
0.004048
0.009707
0.0112
0.01705
0.02447
0.03217
0.03338
0.03226
0.03129
0.03222
0.03431
0.03189
0.03042
0.03294
0.03514
0.03802
0.04361
0.0345
0.02664
0.0217
0.02391
0.02079
0.02339
0.02299
0.02277
0.02065
0.02245
0.02361
0.03117
0.05489
0.1148
0.221
0.3981
0.5205
0.5814
0.5945
0.6282
0.6767
0.7384
0.7934
0.8297
0.8509
0.8641
0.8777
0.8894
0.8934
0.892
0.8867
0.8859
0.8883
0.8958
0.9075
0.927
0.9472
0.9685
0.9794
0.9845
0.9889
0.9939
0.9967
0.998
0.999
0.9994
0.9995
0.9996
0.9996
0.9992
0.9984
0.9972
0.9954
0.9931
0.9917
0.9904
0.9897
0.9888
0.9877
0.9865
0.9855
0.9846
0.9837
0.9828
0.9817
0.9803
0.9784
0.9759
0.9729
0.9695
0.9661
0.9634
0.962
0.9621
0.9633
0.965
0.967
0.9697
0.9731
0.9771
0.9808
0.9839
0.9862
0.9879
0.9891
0.9902
0.9912
0.992
0.9926
0.9932
0.9936
0.994
0.9944
0.9947
0.995
0.9953
0.9955
0.9957
0.9959
0.9961
0.9962
0.9964
0.9965
0.9967
0.9968
0.9969
0.9969
0.9968
0.9967
0.9966
0.9968
0.9974
0.998
0.9986
0.9988
0.999
0.999
0.9987
0.9978
0.9965
0.02668
0.03719
0.05073
0.02278
0.00848
0.004732
0.006974
0.01512
0.02715
0.01878
0.01098
0.00548
0.003309
0.002576
0.001069
0.0002568
7.411e-05
1.493e-05
5.851e-06
4.554e-06
1.84e-05
0.0001454
0.001123
0.004113
0.0114
0.01216
0.01689
0.02348
0.02912
0.0284
0.02833
0.02764
0.03268
0.0391
0.04399
0.04668
0.05322
0.05505
0.05909
0.06428
0.05497
0.04867
0.04601
0.0507
0.04615
0.04894
0.04587
0.04947
0.06056
0.08061
0.09754
0.1193
0.1683
0.2657
0.4267
0.5389
0.5988
0.6368
0.6569
0.6935
0.7385
0.7832
0.8192
0.8437
0.8585
0.8696
0.8816
0.8914
0.8931
0.8876
0.8762
0.8694
0.8699
0.8768
0.8861
0.9013
0.9201
0.9401
0.9537
0.9627
0.9754
0.9884
0.9942
0.9967
0.9977
0.9982
0.9984
0.9983
0.9977
0.9956
0.9921
0.9893
0.9864
0.9842
0.9837
0.9828
0.9815
0.98
0.9786
0.9774
0.9767
0.9763
0.9759
0.9754
0.9745
0.9732
0.9712
0.9685
0.9649
0.961
0.9573
0.9552
0.9556
0.9582
0.962
0.9659
0.9697
0.9737
0.978
0.9821
0.9855
0.9878
0.9893
0.9905
0.9914
0.9922
0.9928
0.9934
0.9938
0.9942
0.9945
0.9949
0.9951
0.9954
0.9956
0.9958
0.996
0.9962
0.9963
0.9965
0.9966
0.9967
0.9968
0.9969
0.997
0.997
0.9968
0.9968
0.9968
0.9971
0.9976
0.9983
0.9987
0.9991
0.9992
0.9993
0.9994
0.9993
0.9988
0.9975
0.01885
0.02849
0.04237
0.02059
0.007728
0.00587
0.01055
0.02927
0.04048
0.02507
0.01108
0.005183
0.002939
0.002313
0.0005208
0.000111
3.879e-05
1.411e-05
8.333e-06
9.294e-06
4.565e-05
0.0003362
0.002742
0.009676
0.02274
0.01951
0.02243
0.02488
0.02746
0.02745
0.02869
0.0305
0.04047
0.04831
0.05126
0.0533
0.05784
0.05449
0.05222
0.0558
0.05834
0.06498
0.08215
0.0969
0.09045
0.07851
0.06251
0.06038
0.07777
0.1174
0.1672
0.23
0.3163
0.4188
0.5054
0.5812
0.6331
0.6762
0.7041
0.7327
0.7644
0.7997
0.8265
0.8451
0.8542
0.8623
0.8711
0.8778
0.8737
0.8638
0.8483
0.8377
0.8373
0.845
0.8526
0.8644
0.8822
0.8947
0.9073
0.9234
0.9468
0.9705
0.9833
0.9886
0.9912
0.9923
0.9907
0.9887
0.9834
0.9737
0.9636
0.9614
0.9603
0.9596
0.9587
0.9572
0.9553
0.9535
0.9526
0.9538
0.9567
0.9601
0.9629
0.9646
0.9648
0.9642
0.9622
0.9583
0.9523
0.9453
0.9388
0.9359
0.9385
0.9446
0.9517
0.9587
0.9666
0.9741
0.9806
0.9855
0.9885
0.9901
0.9911
0.9918
0.9924
0.9929
0.9935
0.994
0.9944
0.9948
0.9951
0.9953
0.9956
0.9958
0.996
0.9962
0.9963
0.9965
0.9966
0.9967
0.9968
0.9969
0.997
0.997
0.997
0.9968
0.9967
0.997
0.9973
0.9979
0.9984
0.9989
0.9991
0.9993
0.9994
0.9994
0.9995
0.9993
0.9988
0.9974
0.0167
0.02565
0.03673
0.0194
0.006551
0.005815
0.01227
0.0331
0.03794
0.02076
0.009271
0.004541
0.002135
0.001568
0.0003665
9.517e-05
6.037e-05
4.895e-05
4.346e-05
6.549e-05
0.0002905
0.001554
0.008865
0.02645
0.05116
0.03993
0.03921
0.03437
0.03067
0.02833
0.02941
0.03447
0.05024
0.06277
0.0638
0.06423
0.06725
0.06295
0.05856
0.06031
0.06259
0.07002
0.08729
0.1078
0.1106
0.1042
0.09326
0.09759
0.1241
0.1986
0.3088
0.4225
0.4827
0.5246
0.5639
0.6161
0.6561
0.695
0.7246
0.7528
0.7794
0.8105
0.8293
0.84
0.8415
0.8441
0.8468
0.8474
0.8391
0.8245
0.8056
0.7908
0.7916
0.8004
0.8138
0.8276
0.8426
0.8494
0.8574
0.8712
0.9036
0.9349
0.9554
0.9631
0.9669
0.9664
0.9609
0.9521
0.9343
0.9095
0.8885
0.8854
0.8848
0.8855
0.8862
0.8864
0.887
0.8887
0.8927
0.9032
0.9164
0.9285
0.9374
0.943
0.9447
0.9452
0.9437
0.9384
0.929
0.9177
0.9073
0.9033
0.9086
0.919
0.9314
0.9437
0.9578
0.9698
0.9791
0.9853
0.9889
0.9907
0.9918
0.9925
0.9929
0.9934
0.9939
0.9944
0.9948
0.9951
0.9954
0.9957
0.9959
0.9961
0.9963
0.9964
0.9966
0.9967
0.9968
0.9968
0.9969
0.9969
0.9969
0.9969
0.9967
0.9966
0.9968
0.9975
0.9981
0.9987
0.999
0.9992
0.9993
0.9993
0.9992
0.999
0.999
0.9987
0.998
0.9958
0.01792
0.02747
0.03851
0.0229
0.007907
0.007366
0.01247
0.02777
0.02941
0.01697
0.007268
0.004314
0.002561
0.001824
0.0005673
0.0002382
0.0002576
0.0003782
0.0004672
0.0007217
0.002302
0.007424
0.02318
0.04954
0.0747
0.05774
0.05198
0.04147
0.03357
0.02936
0.03306
0.04338
0.06622
0.08853
0.08671
0.08241
0.07677
0.06877
0.0611
0.06017
0.0602
0.06869
0.08684
0.1141
0.1378
0.1489
0.1471
0.1661
0.2069
0.3083
0.435
0.5314
0.5767
0.6186
0.6509
0.6962
0.7318
0.7656
0.7797
0.7895
0.7991
0.8137
0.8212
0.8254
0.8199
0.8141
0.8102
0.8052
0.7936
0.7789
0.7596
0.7436
0.7394
0.742
0.7624
0.7871
0.8068
0.8143
0.817
0.816
0.8386
0.8513
0.8588
0.8638
0.8503
0.8227
0.7973
0.7586
0.7159
0.7001
0.6875
0.6876
0.6893
0.6922
0.6954
0.7001
0.7102
0.7318
0.7579
0.7958
0.8347
0.8665
0.8862
0.8986
0.9041
0.9079
0.9091
0.9031
0.8901
0.8722
0.8574
0.8529
0.8634
0.8805
0.8994
0.9188
0.9416
0.9603
0.9735
0.9819
0.9865
0.9893
0.9913
0.9927
0.9933
0.9939
0.9942
0.9946
0.995
0.9954
0.9956
0.9959
0.9961
0.9962
0.9964
0.9965
0.9966
0.9966
0.9967
0.9967
0.9967
0.9967
0.9966
0.9963
0.9962
0.9965
0.9972
0.9981
0.9987
0.9991
0.9992
0.9993
0.9992
0.999
0.9986
0.9981
0.9975
0.9966
0.9948
0.9905
0.02134
0.03157
0.04364
0.02493
0.009546
0.008106
0.009892
0.02002
0.02414
0.0168
0.009154
0.007908
0.005834
0.004547
0.001929
0.001001
0.001168
0.002003
0.003043
0.005739
0.01256
0.02337
0.03799
0.04867
0.05096
0.04385
0.048
0.03857
0.03148
0.0261
0.02628
0.03173
0.05098
0.0763
0.08539
0.08848
0.08542
0.07998
0.0757
0.07645
0.07771
0.08738
0.1062
0.136
0.1728
0.2032
0.2158
0.2544
0.3108
0.4286
0.5174
0.5951
0.6311
0.6695
0.7006
0.741
0.7691
0.7946
0.8049
0.807
0.805
0.8049
0.7987
0.7922
0.7771
0.7613
0.755
0.7532
0.7482
0.7429
0.7285
0.7078
0.6896
0.6813
0.708
0.743
0.7693
0.7753
0.7666
0.7425
0.7337
0.7114
0.6822
0.6536
0.6125
0.5802
0.5634
0.5368
0.49
0.4724
0.4567
0.4551
0.4527
0.4559
0.4574
0.4629
0.4861
0.5319
0.5828
0.6465
0.708
0.7538
0.7825
0.8023
0.8154
0.8273
0.8363
0.8341
0.8209
0.8029
0.7903
0.7918
0.8113
0.8374
0.8627
0.8885
0.9199
0.9455
0.9626
0.9745
0.9811
0.9857
0.9893
0.9919
0.9932
0.9941
0.9944
0.9947
0.995
0.9954
0.9957
0.9959
0.996
0.9961
0.9961
0.9962
0.9962
0.9963
0.9962
0.9962
0.9961
0.9959
0.9961
0.9962
0.9966
0.9973
0.998
0.9987
0.9991
0.9993
0.9992
0.9991
0.9987
0.9981
0.9968
0.9954
0.9934
0.9911
0.9871
0.9799
0.02559
0.03678
0.04967
0.0277
0.01136
0.006857
0.005918
0.01227
0.0204
0.02071
0.01427
0.01676
0.01327
0.01085
0.006294
0.004124
0.00484
0.008653
0.01212
0.01979
0.03165
0.0404
0.04386
0.04117
0.03788
0.03585
0.04715
0.03996
0.03434
0.02864
0.02673
0.02889
0.04366
0.06984
0.09244
0.1087
0.1093
0.1057
0.1025
0.103
0.1054
0.1176
0.137
0.1638
0.1966
0.2263
0.2483
0.3029
0.3783
0.4705
0.5404
0.6067
0.6517
0.7005
0.7352
0.7712
0.7935
0.8131
0.8191
0.8154
0.7982
0.7799
0.7534
0.728
0.704
0.6825
0.676
0.6819
0.6947
0.7065
0.7027
0.6806
0.6491
0.6239
0.6432
0.6829
0.71
0.7078
0.6802
0.6209
0.5639
0.5
0.4386
0.4051
0.3575
0.3359
0.3117
0.2965
0.2524
0.2308
0.2146
0.213
0.2186
0.232
0.2319
0.2252
0.2325
0.2597
0.3043
0.3772
0.4599
0.5252
0.5713
0.6102
0.6436
0.6638
0.6799
0.6845
0.6784
0.6748
0.6893
0.7179
0.757
0.7967
0.8307
0.8611
0.8956
0.9259
0.9481
0.9639
0.9731
0.9794
0.9856
0.9903
0.9927
0.994
0.9945
0.9944
0.9947
0.995
0.9952
0.9954
0.9955
0.9955
0.9954
0.9954
0.9954
0.9954
0.9957
0.9962
0.9967
0.997
0.9974
0.9976
0.9979
0.9984
0.9988
0.999
0.9991
0.9991
0.9986
0.998
0.9965
0.9946
0.9917
0.9881
0.982
0.9768
0.9708
0.9607
0.02561
0.03605
0.05095
0.02582
0.01148
0.004648
0.003289
0.007334
0.0201
0.03158
0.03026
0.03617
0.02867
0.02401
0.01642
0.01324
0.0122
0.01909
0.02376
0.03433
0.04301
0.04478
0.04138
0.03463
0.03591
0.03901
0.05363
0.04969
0.04392
0.03441
0.02981
0.02974
0.03985
0.06307
0.09318
0.1236
0.1359
0.1365
0.1366
0.1385
0.1451
0.1629
0.1846
0.208
0.2316
0.2554
0.2798
0.3259
0.3861
0.458
0.5221
0.5907
0.6489
0.7019
0.7404
0.7721
0.7914
0.8085
0.8148
0.8138
0.7988
0.772
0.7317
0.6976
0.6674
0.6498
0.6451
0.6513
0.6673
0.6828
0.6786
0.6481
0.6019
0.5606
0.5666
0.5949
0.6084
0.5849
0.5268
0.4265
0.3381
0.2756
0.2414
0.2251
0.1851
0.1522
0.1312
0.122
0.1141
0.1156
0.1116
0.1095
0.1166
0.1276
0.1361
0.1365
0.1424
0.1546
0.1758
0.1937
0.2154
0.2357
0.2571
0.2896
0.3425
0.3746
0.4091
0.4463
0.4749
0.5135
0.5761
0.644
0.7074
0.7676
0.8146
0.8494
0.881
0.9109
0.9349
0.9526
0.9641
0.9719
0.98
0.9866
0.9909
0.993
0.9938
0.9936
0.9936
0.9939
0.9942
0.9943
0.9948
0.9954
0.9961
0.9966
0.9969
0.9969
0.9973
0.9976
0.9977
0.9977
0.9978
0.9977
0.9981
0.9984
0.9986
0.9987
0.9986
0.9981
0.9967
0.9939
0.9898
0.9841
0.9778
0.971
0.9618
0.9533
0.9442
0.924
0.02028
0.02947
0.04639
0.02858
0.01844
0.006241
0.003693
0.005659
0.01619
0.02372
0.02951
0.03635
0.03482
0.03014
0.02361
0.02286
0.0207
0.02856
0.03812
0.04606
0.04602
0.04405
0.03924
0.03252
0.03227
0.03388
0.04546
0.04699
0.0494
0.04447
0.03849
0.03574
0.04266
0.05963
0.08619
0.1179
0.1358
0.138
0.1481
0.1596
0.1755
0.1998
0.2233
0.2434
0.2609
0.2825
0.3105
0.3474
0.3931
0.4473
0.5013
0.564
0.6246
0.6748
0.7152
0.7473
0.7685
0.7886
0.8005
0.805
0.7909
0.7609
0.7137
0.6719
0.6407
0.6284
0.6225
0.6211
0.6316
0.6378
0.6311
0.5951
0.545
0.5007
0.4988
0.5059
0.4934
0.4388
0.3505
0.2574
0.1974
0.1621
0.1352
0.1155
0.08654
0.06489
0.05273
0.05114
0.05207
0.05789
0.05579
0.05389
0.06098
0.0732
0.08548
0.09324
0.09891
0.1051
0.12
0.1314
0.1417
0.1509
0.1682
0.1921
0.2287
0.2474
0.2736
0.3068
0.3535
0.4267
0.5162
0.5989
0.6743
0.7461
0.8025
0.8425
0.8744
0.9033
0.928
0.9463
0.9581
0.9651
0.9728
0.9813
0.989
0.9932
0.995
0.9956
0.9956
0.9956
0.9958
0.9959
0.9965
0.9972
0.9976
0.9977
0.9977
0.9972
0.9974
0.9975
0.9977
0.9974
0.9974
0.9969
0.9971
0.9971
0.9972
0.9968
0.996
0.9937
0.9886
0.9795
0.9689
0.9576
0.9481
0.9381
0.9224
0.8992
0.8696
0.8258
0.01642
0.02421
0.04235
0.03437
0.02948
0.008861
0.004858
0.00492
0.01129
0.0167
0.0241
0.02911