/*--------------------------------*- C++ -*----------------------------------*\
| =========                 |                                                 |
| \\      /  F ield         | OpenFOAM: The Open Source CFD Toolbox           |
|  \\    /   O peration     | Version:  5.x                                   |
|   \\  /    A nd           | Web:      www.OpenFOAM.org                      |
|    \\/     M anipulation  |                                                 |
\*---------------------------------------------------------------------------*/
FoamFile
{
    version     2.0;
    format      ascii;
    class       volScalarField;
    location    "85";
    object      gamma;
}
// * * * * * * * * * * * * * * * * * * * * * * * * * * * * * * * * * * * * * //

dimensions      [0 0 0 0 0 0 0];

internalField   nonuniform List<scalar> 
80000
(
1
1
1
1
1
1
1
1
1
1
1
1
1
1
1
1
1
1
1
1
1
1
1
1
1
1
1
1
1
1
1
1
1
1
1
1
1
1
1
1
1
1
1
1
1
1
1
1
1
1
1
1
1
1
1
1
1
1
1
1
1
1
1
1
1
1
1
1
1
1
1
1
1
1
1
1
1
1
1
1
1
1
1
1
1
1
1
1
1
1
1
1
1
1
1
1
1
1
1
1
1
1
1
1
1
1
1
1
1
1
1
1
1
1
1
1
1
1
1
1
1
1
1
1
1
1
1
1
1
1
1
1
1
1
1
1
1
1
1
1
1
1
1
1
1
1
1
1
1
1
1
1
1
1
1
1
1
1
1
1
1
1
1
1
1
1
1
1
1
1
1
1
1
1
1
1
1
1
1
1
1
1
1
1
1
1
1
1
1
1
1
1
1
1
1
1
1
1
1
1
1
1
1
1
1
1
1
1
1
1
1
1
1
1
1
1
1
1
1
1
1
1
1
1
1
1
1
1
1
1
1
1
1
1
1
1
1
1
1
1
1
1
1
1
1
1
1
1
1
1
1
1
1
1
1
1
1
1
0.99999
0.99995
0.99876
0.93129
0.018118
0.00010548
3.432e-06
4.0419e-07
3.6728e-08
3.0836e-09
4.4616e-10
1.6986e-10
2.8533e-10
1.6003e-09
1.2932e-08
7.8732e-08
2.9871e-07
4.782e-07
4.8002e-07
4.9321e-07
8.8186e-07
2.0843e-06
6.3596e-06
1.2308e-05
1.9612e-05
2.3183e-05
1.3917e-05
6.3918e-06
2.1585e-06
1.1105e-06
9.5601e-07
1.4998e-06
1.6654e-06
1.6293e-06
1.5561e-06
1.4907e-06
1.4312e-06
1.3928e-06
1.375e-06
1.3647e-06
1.3625e-06
1.347e-06
1.3225e-06
1.2902e-06
1.2559e-06
1.2289e-06
1.2097e-06
1.1959e-06
1.1905e-06
1.1815e-06
1.1512e-06
1.0968e-06
1.0292e-06
1.0087e-06
1.1667e-06
1.8609e-06
2.8151e-06
1.3657e-06
4.1855e-07
8.9604e-08
3.3834e-08
2.5549e-08
4.1878e-08
4.6482e-08
4.4514e-08
4.1991e-08
4.0437e-08
3.9546e-08
3.8758e-08
3.7944e-08
3.7123e-08
3.6321e-08
3.5548e-08
3.48e-08
3.4075e-08
3.3372e-08
3.2689e-08
3.2025e-08
3.138e-08
3.0753e-08
3.0144e-08
2.9552e-08
2.8977e-08
2.8419e-08
2.7877e-08
2.7352e-08
2.6843e-08
2.6351e-08
2.5875e-08
2.5416e-08
2.4973e-08
2.4548e-08
2.414e-08
2.3749e-08
2.3375e-08
2.3018e-08
2.268e-08
2.2358e-08
2.2055e-08
2.1769e-08
2.15e-08
2.1249e-08
2.1016e-08
2.0799e-08
2.0599e-08
2.0416e-08
2.0248e-08
2.0097e-08
1.996e-08
1.9838e-08
1.973e-08
1.9636e-08
1.9554e-08
1.9483e-08
1.9424e-08
1.9374e-08
1.9334e-08
1.9302e-08
1.9278e-08
1.9259e-08
1.9247e-08
1.9239e-08
1.9234e-08
1.9233e-08
1.9234e-08
1.9236e-08
1.9239e-08
1.9242e-08
1.9248e-08
1.9257e-08
1.9261e-08
1.9227e-08
1.9124e-08
1.9098e-08
1.9494e-08
2.061e-08
2.1119e-08
1.607e-08
1.219e-08
1.4802e-08
1.9027e-08
3.2652e-08
1
1
1
1
1
1
1
1
1
1
1
1
1
1
1
1
1
1
1
1
1
1
1
1
1
1
1
1
1
1
1
1
1
1
1
1
1
1
1
1
1
1
1
1
1
1
1
1
1
1
1
1
1
1
1
1
1
1
1
1
1
1
1
1
1
1
1
1
1
1
1
1
1
1
1
1
1
1
1
1
1
1
1
1
1
1
1
1
1
1
1
1
1
1
1
1
1
1
1
1
1
1
1
1
1
1
1
1
1
1
1
1
1
1
1
1
1
1
1
1
1
1
1
1
1
1
1
1
1
1
1
1
1
1
1
1
1
1
1
1
1
1
1
1
1
1
1
1
1
1
1
1
1
1
1
1
1
1
1
1
1
1
1
1
1
1
1
1
1
1
1
1
1
1
1
1
1
1
1
1
1
1
1
1
1
1
1
1
1
1
1
1
1
1
1
1
1
1
1
1
1
1
1
1
1
1
1
1
1
1
1
1
1
1
1
1
1
1
1
1
1
1
1
1
1
1
1
1
1
1
1
1
1
1
1
1
1
1
1
1
1
1
1
1
1
1
1
1
1
1
1
1
1
1
1
1
1
1
1
0.99998
0.99971
0.99493
0.91632
0.30963
0.020118
0.002251
0.00011218
2.9593e-06
8.6848e-08
5.3135e-09
1.3155e-09
1.3595e-09
3.2599e-09
8.9019e-09
2.3911e-08
5.121e-08
1.1664e-07
3.0203e-07
1.0373e-06
3.7243e-06
8.1898e-06
1.3061e-05
1.5395e-05
1.2787e-05
6.2679e-06
2.6122e-06
1.0049e-06
6.7649e-07
7.0485e-07
1.0396e-06
1.1293e-06
1.0963e-06
1.0404e-06
9.9576e-07
9.6286e-07
9.4407e-07
9.3522e-07
9.3065e-07
9.1883e-07
9.0191e-07
8.8196e-07
8.594e-07
8.3735e-07
8.2175e-07
8.1009e-07
8.0307e-07
7.9525e-07
7.8356e-07
7.5681e-07
7.1815e-07
6.8211e-07
7.0286e-07
8.917e-07
1.1474e-06
1.0732e-06
4.1092e-07
1.1747e-07
3.1122e-08
1.7197e-08
1.6763e-08
2.5695e-08
2.7736e-08
2.6407e-08
2.4936e-08
2.4041e-08
2.351e-08
2.3035e-08
2.2545e-08
2.2055e-08
2.1577e-08
2.1117e-08
2.0673e-08
2.0242e-08
1.9825e-08
1.942e-08
1.9026e-08
1.8644e-08
1.8272e-08
1.7911e-08
1.756e-08
1.7219e-08
1.6887e-08
1.6566e-08
1.6254e-08
1.5951e-08
1.5659e-08
1.5375e-08
1.5102e-08
1.4839e-08
1.4585e-08
1.4341e-08
1.4107e-08
1.3884e-08
1.3671e-08
1.3467e-08
1.3275e-08
1.3092e-08
1.292e-08
1.2758e-08
1.2606e-08
1.2464e-08
1.2333e-08
1.2211e-08
1.2099e-08
1.1996e-08
1.1902e-08
1.1818e-08
1.1741e-08
1.1674e-08
1.1613e-08
1.1561e-08
1.1515e-08
1.1476e-08
1.1442e-08
1.1414e-08
1.1391e-08
1.1373e-08
1.1359e-08
1.1348e-08
1.1339e-08
1.1334e-08
1.133e-08
1.1328e-08
1.1327e-08
1.1327e-08
1.1328e-08
1.133e-08
1.1335e-08
1.1336e-08
1.1315e-08
1.1253e-08
1.1238e-08
1.1481e-08
1.216e-08
1.2462e-08
9.3847e-09
7.0692e-09
8.7036e-09
1.1173e-08
1.9027e-08
1
1
1
1
1
1
1
1
1
1
1
1
1
1
1
1
1
1
1
1
1
1
1
1
1
1
1
1
1
1
1
1
1
1
1
1
1
1
1
1
1
1
1
1
1
1
1
1
1
1
1
1
1
1
1
1
1
1
1
1
1
1
1
1
1
1
1
1
1
1
1
1
1
1
1
1
1
1
1
1
1
1
1
1
1
1
1
1
1
1
1
1
1
1
1
1
1
1
1
1
1
1
1
1
1
1
1
1
1
1
1
1
1
1
1
1
1
1
1
1
1
1
1
1
1
1
1
1
1
1
1
1
1
1
1
1
1
1
1
1
1
1
1
1
1
1
1
1
1
1
1
1
1
1
1
1
1
1
1
1
1
1
1
1
1
1
1
1
1
1
1
1
1
1
1
1
1
1
1
1
1
1
1
1
1
1
1
1
1
1
1
1
1
1
1
1
1
1
1
1
1
1
1
1
1
1
1
1
1
1
1
1
1
1
1
1
1
1
1
1
1
1
1
1
1
1
1
1
1
1
1
1
1
1
1
1
1
1
1
1
1
1
1
1
1
1
1
1
1
1
1
1
1
1
1
1
1
1
1
0.99999
0.99997
0.99983
0.99879
0.99362
0.97469
0.91449
0.52528
0.012601
0.00016938
2.2242e-06
9.4227e-08
1.3734e-08
5.1118e-09
2.9643e-09
3.5868e-09
7.1298e-09
2.7196e-08
1.5091e-07
1.0295e-06
4.2449e-06
1.0046e-05
1.3655e-05
1.1594e-05
6.8857e-06
2.8608e-06
1.0767e-06
6.3622e-07
5.6347e-07
6.714e-07
9.0224e-07
9.4853e-07
9.0839e-07
8.6084e-07
8.2689e-07
8.0547e-07
7.9414e-07
7.8885e-07
7.7831e-07
7.6357e-07
7.4617e-07
7.2748e-07
7.0977e-07
6.9358e-07
6.8237e-07
6.732e-07
6.6656e-07
6.5729e-07
6.4281e-07
6.154e-07
5.8304e-07
5.6922e-07
6.33e-07
9.0931e-07
9.1983e-07
5.6703e-07
1.7234e-07
4.0368e-08
1.5092e-08
1.2554e-08
1.4943e-08
2.0729e-08
2.1546e-08
2.0405e-08
1.9337e-08
1.8693e-08
1.8287e-08
1.7915e-08
1.7534e-08
1.7154e-08
1.6786e-08
1.6432e-08
1.6091e-08
1.576e-08
1.544e-08
1.5129e-08
1.4827e-08
1.4534e-08
1.4248e-08
1.3971e-08
1.3701e-08
1.3439e-08
1.3185e-08
1.2937e-08
1.2697e-08
1.2464e-08
1.2238e-08
1.202e-08
1.1809e-08
1.1605e-08
1.1409e-08
1.122e-08
1.1038e-08
1.0865e-08
1.0699e-08
1.054e-08
1.0389e-08
1.0247e-08
1.0111e-08
9.9841e-09
9.8644e-09
9.7524e-09
9.6479e-09
9.5509e-09
9.4611e-09
9.3786e-09
9.303e-09
9.2341e-09
9.1718e-09
9.1156e-09
9.0655e-09
9.0209e-09
8.9817e-09
8.9475e-09
8.9179e-09
8.8926e-09
8.8712e-09
8.8533e-09
8.8386e-09
8.8267e-09
8.8173e-09
8.8099e-09
8.8044e-09
8.8003e-09
8.7974e-09
8.7954e-09
8.7943e-09
8.7949e-09
8.7976e-09
8.7983e-09
8.7815e-09
8.7324e-09
8.7207e-09
8.9131e-09
9.4489e-09
9.687e-09
7.263e-09
5.4405e-09
6.742e-09
8.7036e-09
1.4802e-08
1
1
1
1
1
1
1
1
1
1
1
1
1
1
1
1
1
1
1
1
1
1
1
1
1
1
1
1
1
1
1
1
1
1
1
1
1
1
1
1
1
1
1
1
1
1
1
1
1
1
1
1
1
1
1
1
1
1
1
1
1
1
1
1
1
1
1
1
1
1
1
1
1
1
1
1
1
1
1
1
1
1
1
1
1
1
1
1
1
1
1
1
1
1
1
1
1
1
1
1
1
1
1
1
1
1
1
1
1
1
1
1
1
1
1
1
1
1
1
1
1
1
1
1
1
1
1
1
1
1
1
1
1
1
1
1
1
1
1
1
1
1
1
1
1
1
1
1
1
1
1
1
1
1
1
1
1
1
1
1
1
1
1
1
1
1
1
1
1
1
1
1
1
1
1
1
1
1
1
1
1
1
1
1
1
1
1
1
1
1
1
1
1
1
1
1
1
1
1
1
1
1
1
1
1
1
1
1
1
1
1
1
1
1
1
1
1
1
1
1
1
1
1
1
1
1
1
1
1
1
1
1
1
1
1
1
1
1
1
1
1
1
1
1
1
1
1
1
1
1
1
1
1
1
1
1
1
1
1
1
1
1
0.99999
0.99999
0.99998
0.99992
0.99956
0.99443
0.87317
0.016177
9.036e-05
1.2417e-06
4.9336e-08
4.7757e-09
1.6232e-09
1.6046e-09
5.7815e-09
5.0213e-08
4.4729e-07
2.7295e-06
7.6352e-06
9.1269e-06
6.0078e-06
2.7013e-06
9.8919e-07
5.5904e-07
4.7462e-07
5.4364e-07
7.0492e-07
8.2772e-07
8.2467e-07
7.7757e-07
7.3699e-07
7.1138e-07
6.987e-07
6.9421e-07
6.8716e-07
6.7333e-07
6.5661e-07
6.3823e-07
6.2161e-07
6.0839e-07
5.9673e-07
5.8877e-07
5.82e-07
5.7326e-07
5.6245e-07
5.4461e-07
5.1555e-07
4.89e-07
5.0094e-07
6.2763e-07
8.2075e-07
5.3895e-07
1.9586e-07
4.304e-08
1.3874e-08
8.2184e-09
1.0515e-08
1.4652e-08
1.7602e-08
1.7384e-08
1.638e-08
1.5621e-08
1.5161e-08
1.484e-08
1.4535e-08
1.4225e-08
1.3918e-08
1.3623e-08
1.3339e-08
1.3065e-08
1.2801e-08
1.2544e-08
1.2296e-08
1.2055e-08
1.1821e-08
1.1593e-08
1.1371e-08
1.1156e-08
1.0947e-08
1.0743e-08
1.0545e-08
1.0353e-08
1.0166e-08
9.9847e-09
9.8092e-09
9.6394e-09
9.4752e-09
9.3168e-09
9.1642e-09
9.0174e-09
8.8765e-09
8.7415e-09
8.6125e-09
8.4894e-09
8.3725e-09
8.2615e-09
8.1565e-09
8.0576e-09
7.9646e-09
7.8775e-09
7.7962e-09
7.7206e-09
7.6506e-09
7.586e-09
7.5267e-09
7.4726e-09
7.4233e-09
7.3787e-09
7.3386e-09
7.3027e-09
7.2707e-09
7.2425e-09
7.2178e-09
7.1963e-09
7.1777e-09
7.1618e-09
7.1483e-09
7.137e-09
7.1277e-09
7.12e-09
7.1138e-09
7.1089e-09
7.1051e-09
7.1023e-09
7.1013e-09
7.1024e-09
7.1021e-09
7.0877e-09
7.0473e-09
7.0381e-09
7.1964e-09
7.6352e-09
7.8284e-09
5.8435e-09
4.3591e-09
5.4405e-09
7.0692e-09
1.219e-08
1
1
1
1
1
1
1
1
1
1
1
1
1
1
1
1
1
1
1
1
1
1
1
1
1
1
1
1
1
1
1
1
1
1
1
1
1
1
1
1
1
1
1
1
1
1
1
1
1
1
1
1
1
1
1
1
1
1
1
1
1
1
1
1
1
1
1
1
1
1
1
1
1
1
1
1
1
1
1
1
1
1
1
1
1
1
1
1
1
1
1
1
1
1
1
1
1
1
1
1
1
1
1
1
1
1
1
1
1
1
1
1
1
1
1
1
1
1
1
1
1
1
1
1
1
1
1
1
1
1
1
1
1
1
1
1
1
1
1
1
1
1
1
1
1
1
1
1
1
1
1
1
1
1
1
1
1
1
1
1
1
1
1
1
1
1
1
1
1
1
1
1
1
1
1
1
1
1
1
1
1
1
1
1
1
1
1
1
1
1
1
1
1
1
1
1
1
1
1
1
1
1
1
1
1
1
1
1
1
1
1
1
1
1
1
1
1
1
1
1
1
1
1
1
1
1
1
1
1
1
1
1
1
1
1
1
1
1
1
1
1
1
1
1
1
1
1
1
1
1
1
1
1
1
1
1
1
1
1
1
1
1
1
1
1
1
1
0.99999
0.99986
0.99541
0.85639
0.015742
9.4136e-05
1.2171e-06
4.9191e-08
6.6741e-09
7.1793e-09
2.2924e-08
1.2302e-07
5.4656e-07
1.4218e-06
1.9053e-06
1.6262e-06
8.4469e-07
5.654e-07
5.2564e-07
6.3329e-07
8.6127e-07
1.0836e-06
1.1138e-06
1.0554e-06
9.8139e-07
9.3195e-07
9.0462e-07
8.9502e-07
8.8567e-07
8.7295e-07
8.4913e-07
8.2456e-07
8.028e-07
7.8632e-07
7.727e-07
7.6078e-07
7.509e-07
7.3824e-07
7.2465e-07
7.0906e-07
6.8202e-07
6.4196e-07
6.1353e-07
6.6722e-07
9.4992e-07
9.6102e-07
4.1102e-07
1.0327e-07
2.2337e-08
9.1929e-09
9.3849e-09
1.6494e-08
2.3232e-08
2.4236e-08
2.2876e-08
2.1531e-08
2.0691e-08
2.0167e-08
1.9752e-08
1.9343e-08
1.8933e-08
1.8531e-08
1.8145e-08
1.7773e-08
1.7415e-08
1.7069e-08
1.6734e-08
1.641e-08
1.6095e-08
1.5789e-08
1.5492e-08
1.5203e-08
1.4922e-08
1.4649e-08
1.4383e-08
1.4125e-08
1.3874e-08
1.3629e-08
1.3392e-08
1.3162e-08
1.294e-08
1.2724e-08
1.2516e-08
1.2315e-08
1.2121e-08
1.1935e-08
1.1756e-08
1.1585e-08
1.1421e-08
1.1265e-08
1.1117e-08
1.0976e-08
1.0843e-08
1.0717e-08
1.0599e-08
1.0488e-08
1.0385e-08
1.0288e-08
1.0199e-08
1.0116e-08
1.0039e-08
9.9694e-09
9.9055e-09
9.8472e-09
9.7945e-09
9.7469e-09
9.7042e-09
9.6661e-09
9.6322e-09
9.6023e-09
9.5761e-09
9.5533e-09
9.5336e-09
9.5167e-09
9.5024e-09
9.4903e-09
9.4804e-09
9.4722e-09
9.4659e-09
9.4623e-09
9.4619e-09
9.4601e-09
9.4402e-09
9.3864e-09
9.3738e-09
9.5815e-09
1.0157e-08
1.0412e-08
7.806e-09
5.8435e-09
7.263e-09
9.3847e-09
1.607e-08
1
1
1
1
1
1
1
1
1
1
1
1
1
1
1
1
1
1
1
1
1
1
1
1
1
1
1
1
1
1
1
1
1
1
1
1
1
1
1
1
1
1
1
1
1
1
1
1
1
1
1
1
1
1
1
1
1
1
1
1
1
1
1
1
1
1
1
1
1
1
1
1
1
1
1
1
1
1
1
1
1
1
1
1
1
1
1
1
1
1
1
1
1
1
1
1
1
1
1
1
1
1
1
1
1
1
1
1
1
1
1
1
1
1
1
1
1
1
1
1
1
1
1
1
1
1
1
1
1
1
1
1
1
1
1
1
1
1
1
1
1
1
1
1
1
1
1
1
1
1
1
1
1
1
1
1
1
1
1
1
1
1
1
1
1
1
1
1
1
1
1
1
1
1
1
1
1
1
1
1
1
1
1
1
1
1
1
1
1
1
1
1
1
1
1
1
1
1
1
1
1
1
1
1
1
1
1
1
1
1
1
1
1
1
1
1
1
1
1
1
1
1
1
1
1
1
1
1
1
1
1
1
1
1
1
1
1
1
1
1
1
1
1
1
1
1
1
1
1
1
1
1
1
1
1
1
1
1
1
1
1
1
1
1
1
1
1
1
1
0.99999
0.99984
0.99584
0.85687
0.014273
8.7178e-05
1.2817e-06
1.2805e-07
4.6098e-08
4.9057e-08
6.296e-08
8.9238e-08
1.1483e-07
1.433e-07
1.8812e-07
3.2174e-07
6.1659e-07
1.0553e-06
1.4705e-06
1.5576e-06
1.4801e-06
1.3645e-06
1.26e-06
1.1993e-06
1.1668e-06
1.1501e-06
1.1316e-06
1.1099e-06
1.073e-06
1.0397e-06
1.0167e-06
9.9929e-07
9.8544e-07
9.7426e-07
9.5957e-07
9.4007e-07
9.215e-07
9.0098e-07
8.6321e-07
8.0994e-07
7.8238e-07
8.9667e-07
1.4183e-06
1.0027e-06
3.0262e-07
5.9736e-08
1.81e-08
1.0129e-08
1.7178e-08
3.0967e-08
3.5367e-08
3.3437e-08
3.0661e-08
2.8861e-08
2.785e-08
2.7172e-08
2.6585e-08
2.6012e-08
2.5453e-08
2.4913e-08
2.4395e-08
2.3897e-08
2.3415e-08
2.2949e-08
2.2498e-08
2.2062e-08
2.1638e-08
2.1228e-08
2.0829e-08
2.0442e-08
2.0065e-08
1.9699e-08
1.9343e-08
1.8997e-08
1.8661e-08
1.8334e-08
1.8017e-08
1.7709e-08
1.741e-08
1.7121e-08
1.6842e-08
1.6572e-08
1.6312e-08
1.6061e-08
1.582e-08
1.5589e-08
1.5368e-08
1.5157e-08
1.4956e-08
1.4764e-08
1.4583e-08
1.4411e-08
1.4249e-08
1.4096e-08
1.3953e-08
1.3819e-08
1.3694e-08
1.3578e-08
1.347e-08
1.3371e-08
1.3279e-08
1.3195e-08
1.3118e-08
1.3048e-08
1.2985e-08
1.2927e-08
1.2876e-08
1.283e-08
1.2788e-08
1.2752e-08
1.272e-08
1.2692e-08
1.2667e-08
1.2647e-08
1.2629e-08
1.2614e-08
1.2602e-08
1.2594e-08
1.2591e-08
1.2586e-08
1.2558e-08
1.2486e-08
1.2469e-08
1.274e-08
1.3494e-08
1.3827e-08
1.0412e-08
7.8284e-09
9.687e-09
1.2462e-08
2.112e-08
1
1
1
1
1
1
1
1
1
1
1
1
1
1
1
1
1
1
1
1
1
1
1
1
1
1
1
1
1
1
1
1
1
1
1
1
1
1
1
1
1
1
1
1
1
1
1
1
1
1
1
1
1
1
1
1
1
1
1
1
1
1
1
1
1
1
1
1
1
1
1
1
1
1
1
1
1
1
1
1
1
1
1
1
1
1
1
1
1
1
1
1
1
1
1
1
1
1
1
1
1
1
1
1
1
1
1
1
1
1
1
1
1
1
1
1
1
1
1
1
1
1
1
1
1
1
1
1
1
1
1
1
1
1
1
1
1
1
1
1
1
1
1
1
1
1
1
1
1
1
1
1
1
1
1
1
1
1
1
1
1
1
1
1
1
1
1
1
1
1
1
1
1
1
1
1
1
1
1
1
1
1
1
1
1
1
1
1
1
1
1
1
1
1
1
1
1
1
1
1
1
1
1
1
1
1
1
1
1
1
1
1
1
1
1
1
1
1
1
1
1
1
1
1
1
1
1
1
1
1
1
1
1
1
1
1
1
1
1
1
1
1
1
1
1
1
1
1
1
1
1
1
1
1
1
1
1
1
1
1
1
1
1
1
1
1
1
1
1
1
1
0.99999
0.99977
0.99278
0.77721
0.0066192
7.2212e-05
1.583e-06
1.1786e-07
1.7486e-08
6.9805e-09
4.2736e-09
7.5577e-09
2.0299e-08
7.9043e-08
3.1422e-07
7.9561e-07
1.2647e-06
1.4645e-06
1.4734e-06
1.3982e-06
1.3095e-06
1.2507e-06
1.2065e-06
1.1768e-06
1.1491e-06
1.1222e-06
1.0826e-06
1.0507e-06
1.0282e-06
1.0118e-06
1.0005e-06
9.8589e-07
9.6795e-07
9.4632e-07
9.2836e-07
9.0972e-07
8.7183e-07
8.1753e-07
7.9688e-07
9.4069e-07
1.568e-06
7.64e-07
2.058e-07
3.995e-08
1.4032e-08
9.4442e-09
2.2429e-08
3.5273e-08
3.732e-08
3.4323e-08
3.1341e-08
2.9528e-08
2.8427e-08
2.7601e-08
2.6875e-08
2.6212e-08
2.5601e-08
2.5034e-08
2.4498e-08
2.3984e-08
2.3487e-08
2.3006e-08
2.2541e-08
2.2089e-08
2.1652e-08
2.1228e-08
2.0817e-08
2.0418e-08
2.0031e-08
1.9656e-08
1.9291e-08
1.8936e-08
1.8592e-08
1.8257e-08
1.7933e-08
1.7619e-08
1.7314e-08
1.7019e-08
1.6734e-08
1.6458e-08
1.6193e-08
1.5937e-08
1.5691e-08
1.5455e-08
1.5229e-08
1.5013e-08
1.4807e-08
1.461e-08
1.4424e-08
1.4247e-08
1.408e-08
1.3922e-08
1.3774e-08
1.3635e-08
1.3505e-08
1.3383e-08
1.327e-08
1.3165e-08
1.3068e-08
1.2978e-08
1.2896e-08
1.282e-08
1.2751e-08
1.2688e-08
1.2631e-08
1.2579e-08
1.2533e-08
1.2491e-08
1.2454e-08
1.2421e-08
1.2393e-08
1.2368e-08
1.2346e-08
1.2328e-08
1.2312e-08
1.2301e-08
1.2295e-08
1.2289e-08
1.2259e-08
1.2187e-08
1.2168e-08
1.2432e-08
1.3168e-08
1.3494e-08
1.0157e-08
7.6352e-09
9.4489e-09
1.216e-08
2.061e-08
1
1
1
1
1
1
1
1
1
1
1
1
1
1
1
1
1
1
1
1
1
1
1
1
1
1
1
1
1
1
1
1
1
1
1
1
1
1
1
1
1
1
1
1
1
1
1
1
1
1
1
1
1
1
1
1
1
1
1
1
1
1
1
1
1
1
1
1
1
1
1
1
1
1
1
1
1
1
1
1
1
1
1
1
1
1
1
1
1
1
1
1
1
1
1
1
1
1
1
1
1
1
1
1
1
1
1
1
1
1
1
1
1
1
1
1
1
1
1
1
1
1
1
1
1
1
1
1
1
1
1
1
1
1
1
1
1
1
1
1
1
1
1
1
1
1
1
1
1
1
1
1
1
1
1
1
1
1
1
1
1
1
1
1
1
1
1
1
1
1
1
1
1
1
1
1
1
1
1
1
1
1
1
1
1
1
1
1
1
1
1
1
1
1
1
1
1
1
1
1
1
1
1
1
1
1
1
1
1
1
1
1
1
1
1
1
1
1
1
1
1
1
1
1
1
1
1
1
1
1
1
1
1
1
1
1
1
1
1
1
1
1
1
1
1
1
1
1
1
1
1
1
1
1
1
1
1
1
1
1
1
1
1
1
1
1
1
1
1
1
1
1
1
0.99996
0.9994
0.98022
0.42249
0.0015807
1.196e-05
1.5579e-07
7.551e-09
1.2934e-09
1.1075e-09
2.6553e-09
1.1186e-08
5.6266e-08
1.8324e-07
4.6228e-07
8.1169e-07
1.1119e-06
1.2603e-06
1.291e-06
1.2697e-06
1.2279e-06
1.1885e-06
1.1499e-06
1.1148e-06
1.0753e-06
1.0442e-06
1.0218e-06
1.0053e-06
9.9087e-07
9.7257e-07
9.5285e-07
9.3204e-07
9.1712e-07
9.0194e-07
8.657e-07
8.1342e-07
7.9577e-07
9.3643e-07
1.5438e-06
7.3715e-07
1.9197e-07
3.5548e-08
1.1927e-08
7.8031e-09
1.8557e-08
3.032e-08
3.391e-08
3.2826e-08
3.0984e-08
2.9592e-08
2.8473e-08
2.7453e-08
2.6513e-08
2.5688e-08
2.4976e-08
2.4356e-08
2.3796e-08
2.3276e-08
2.278e-08
2.2302e-08
2.1839e-08
2.139e-08
2.0955e-08
2.0533e-08
2.0125e-08
1.9728e-08
1.9344e-08
1.8972e-08
1.861e-08
1.826e-08
1.7919e-08
1.7589e-08
1.7269e-08
1.6959e-08
1.6659e-08
1.6368e-08
1.6087e-08
1.5816e-08
1.5555e-08
1.5303e-08
1.506e-08
1.4828e-08
1.4605e-08
1.4391e-08
1.4188e-08
1.3993e-08
1.3809e-08
1.3633e-08
1.3467e-08
1.331e-08
1.3161e-08
1.3022e-08
1.2891e-08
1.2768e-08
1.2654e-08
1.2547e-08
1.2447e-08
1.2355e-08
1.227e-08
1.2191e-08
1.2119e-08
1.2053e-08
1.1992e-08
1.1937e-08
1.1887e-08
1.1841e-08
1.1801e-08
1.1764e-08
1.1732e-08
1.1704e-08
1.1679e-08
1.1657e-08
1.1639e-08
1.1625e-08
1.1617e-08
1.1608e-08
1.1578e-08
1.1507e-08
1.1488e-08
1.1736e-08
1.2432e-08
1.274e-08
9.5815e-09
7.1964e-09
8.9131e-09
1.1481e-08
1.9494e-08
1
1
1
1
1
1
1
1
1
1
1
1
1
1
1
1
1
1
1
1
1
1
1
1
1
1
1
1
1
1
1
1
1
1
1
1
1
1
1
1
1
1
1
1
1
1
1
1
1
1
1
1
1
1
1
1
1
1
1
1
1
1
1
1
1
1
1
1
1
1
1
1
1
1
1
1
1
1
1
1
1
1
1
1
1
1
1
1
1
1
1
1
1
1
1
1
1
1
1
1
1
1
1
1
1
1
1
1
1
1
1
1
1
1
1
1
1
1
1
1
1
1
1
1
1
1
1
1
1
1
1
1
1
1
1
1
1
1
1
1
1
1
1
1
1
1
1
1
1
1
1
1
1
1
1
1
1
1
1
1
1
1
1
1
1
1
1
1
1
1
1
1
1
1
1
1
1
1
1
1
1
1
1
1
1
1
1
1
1
1
1
1
1
1
1
1
1
1
1
1
1
1
1
1
1
1
1
1
1
1
1
1
1
1
1
1
1
1
1
1
1
1
1
1
1
1
1
1
1
1
1
1
1
1
1
1
1
1
1
1
1
1
1
1
1
1
1
1
1
1
1
1
1
1
1
1
1
1
1
1
1
1
1
1
1
1
1
1
1
1
1
1
1
1
0.99999
0.99989
0.9983
0.95367
0.072969
0.00018192
7.8496e-07
1.6627e-08
2.3323e-09
1.6368e-09
2.3407e-09
6.0814e-09
1.7208e-08
6.0284e-08
1.8017e-07
4.3226e-07
7.6651e-07
1.0427e-06
1.1956e-06
1.2374e-06
1.2251e-06
1.1892e-06
1.1514e-06
1.1103e-06
1.0772e-06
1.0509e-06
1.0313e-06
1.0094e-06
9.8791e-07
9.6741e-07
9.4927e-07
9.3749e-07
9.2348e-07
8.8919e-07
8.3916e-07
8.1868e-07
9.3355e-07
1.4327e-06
9.5537e-07
3.4551e-07
6.9555e-08
1.9137e-08
8.8722e-09
1.2297e-08
1.8311e-08
2.4904e-08
2.815e-08
2.9435e-08
2.976e-08
2.9352e-08
2.8472e-08
2.7392e-08
2.6348e-08
2.5424e-08
2.4641e-08
2.3973e-08
2.3388e-08
2.2858e-08
2.2361e-08
2.1888e-08
2.143e-08
2.0987e-08
2.0557e-08
2.014e-08
1.9735e-08
1.9343e-08
1.8962e-08
1.8594e-08
1.8237e-08
1.789e-08
1.7555e-08
1.723e-08
1.6915e-08
1.661e-08
1.6315e-08
1.603e-08
1.5755e-08
1.5489e-08
1.5233e-08
1.4987e-08
1.4751e-08
1.4524e-08
1.4307e-08
1.4099e-08
1.3901e-08
1.3712e-08
1.3532e-08
1.3361e-08
1.3199e-08
1.3046e-08
1.2902e-08
1.2766e-08
1.2638e-08
1.2518e-08
1.2406e-08
1.2301e-08
1.2203e-08
1.2112e-08
1.2028e-08
1.195e-08
1.1878e-08
1.1811e-08
1.175e-08
1.1695e-08
1.1644e-08
1.1598e-08
1.1557e-08
1.152e-08
1.1487e-08
1.1458e-08
1.1432e-08
1.1411e-08
1.1394e-08
1.1382e-08
1.137e-08
1.1338e-08
1.1267e-08
1.1246e-08
1.1488e-08
1.2168e-08
1.2469e-08
9.3737e-09
7.0381e-09
8.7207e-09
1.1238e-08
1.9098e-08
1
1
1
1
1
1
1
1
1
1
1
1
1
1
1
1
1
1
1
1
1
1
1
1
1
1
1
1
1
1
1
1
1
1
1
1
1
1
1
1
1
1
1
1
1
1
1
1
1
1
1
1
1
1
1
1
1
1
1
1
1
1
1
1
1
1
1
1
1
1
1
1
1
1
1
1
1
1
1
1
1
1
1
1
1
1
1
1
1
1
1
1
1
1
1
1
1
1
1
1
1
1
1
1
1
1
1
1
1
1
1
1
1
1
1
1
1
1
1
1
1
1
1
1
1
1
1
1
1
1
1
1
1
1
1
1
1
1
1
1
1
1
1
1
1
1
1
1
1
1
1
1
1
1
1
1
1
1
1
1
1
1
1
1
1
1
1
1
1
1
1
1
1
1
1
1
1
1
1
1
1
1
1
1
1
1
1
1
1
1
1
1
1
1
1
1
1
1
1
1
1
1
1
1
1
1
1
1
1
1
1
1
1
1
1
1
1
1
1
1
1
1
1
1
1
1
1
1
1
1
1
1
1
1
1
1
1
1
1
1
1
1
1
1
1
1
1
1
1
1
1
1
1
1
1
1
1
1
1
1
1
1
1
1
1
1
1
1
1
1
1
1
1
1
1
1
0.99999
0.99989
0.99763
0.90046
0.0095099
3.3693e-05
4.4743e-07
3.1161e-08
4.1892e-09
2.0448e-09
2.0571e-09
4.7806e-09
1.5767e-08
6.0185e-08
1.9071e-07
4.4363e-07
7.74e-07
1.0313e-06
1.1716e-06
1.2066e-06
1.1942e-06
1.1625e-06
1.1312e-06
1.1018e-06
1.0743e-06
1.0453e-06
1.0211e-06
9.9951e-07
9.8306e-07
9.7191e-07
9.5888e-07
9.294e-07
8.8459e-07
8.5865e-07
9.322e-07
1.2763e-06
1.1778e-06
6.6407e-07
2.1484e-07
5.9105e-08
2.0501e-08
1.4262e-08
1.3505e-08
1.5721e-08
1.7674e-08
2.2753e-08
2.6553e-08
2.8661e-08
2.926e-08
2.8815e-08
2.7889e-08
2.6818e-08
2.5808e-08
2.492e-08
2.4168e-08
2.3524e-08
2.2961e-08
2.245e-08
2.197e-08
2.151e-08
2.1064e-08
2.0631e-08
2.021e-08
1.9801e-08
1.9405e-08
1.902e-08
1.8648e-08
1.8288e-08
1.7939e-08
1.7601e-08
1.7274e-08
1.6957e-08
1.6651e-08
1.6355e-08
1.6069e-08
1.5794e-08
1.5528e-08
1.5272e-08
1.5027e-08
1.479e-08
1.4564e-08
1.4347e-08
1.414e-08
1.3942e-08
1.3754e-08
1.3575e-08
1.3404e-08
1.3243e-08
1.309e-08
1.2946e-08
1.2809e-08
1.2681e-08
1.256e-08
1.2447e-08
1.2341e-08
1.2242e-08
1.215e-08
1.2064e-08
1.1984e-08
1.1911e-08
1.1842e-08
1.178e-08
1.1722e-08
1.167e-08
1.1623e-08
1.158e-08
1.1541e-08
1.1507e-08
1.1477e-08
1.1451e-08
1.143e-08
1.1414e-08
1.1399e-08
1.1364e-08
1.129e-08
1.1267e-08
1.1507e-08
1.2187e-08
1.2486e-08
9.3864e-09
7.0473e-09
8.7324e-09
1.1253e-08
1.9125e-08
1
1
1
1
1
1
1
1
1
1
1
1
1
1
1
1
1
1
1
1
1
1
1
1
1
1
1
1
1
1
1
1
1
1
1
1
1
1
1
1
1
1
1
1
1
1
1
1
1
1
1
1
1
1
1
1
1
1
1
1
1
1
1
1
1
1
1
1
1
1
1
1
1
1
1
1
1
1
1
1
1
1
1
1
1
1
1
1
1
1
1
1
1
1
1
1
1
1
1
1
1
1
1
1
1
1
1
1
1
1
1
1
1
1
1
1
1
1
1
1
1
1
1
1
1
1
1
1
1
1
1
1
1
1
1
1
1
1
1
1
1
1
1
1
1
1
1
1
1
1
1
1
1
1
1
1
1
1
1
1
1
1
1
1
1
1
1
1
1
1
1
1
1
1
1
1
1
1
1
1
1
1
1
1
1
1
1
1
1
1
1
1
1
1
1
1
1
1
1
1
1
1
1
1
1
1
1
1
1
1
1
1
1
1
1
1
1
1
1
1
1
1
1
1
1
1
1
1
1
1
1
1
1
1
1
1
1
1
1
1
1
1
1
1
1
1
1
1
1
1
1
1
1
1
1
1
1
1
1
1
1
1
1
1
1
1
1
1
1
1
1
1
1
1
1
1
1
1
0.99999
0.99986
0.99357
0.7499
0.0049104
3.7145e-05
3.6528e-07
1.3797e-08
1.765e-09
9.957e-10
1.5355e-09
4.8825e-09
1.8968e-08
6.8676e-08
2.12e-07
4.7096e-07
7.8689e-07
1.022e-06
1.1504e-06
1.1901e-06
1.1848e-06
1.1591e-06
1.1261e-06
1.09e-06
1.0602e-06
1.0318e-06
1.0131e-06
1.0016e-06
9.9085e-07
9.6911e-07
9.3208e-07
8.9886e-07
9.2677e-07
1.1196e-06
1.3059e-06
1.1239e-06
5.7977e-07
2.589e-07
7.9039e-08
3.9051e-08
2.27e-08
1.7352e-08
1.3401e-08
1.4857e-08
1.7012e-08
2.2351e-08
2.623e-08
2.824e-08
2.8754e-08
2.8287e-08
2.7376e-08
2.6338e-08
2.5368e-08
2.4523e-08
2.3814e-08
2.3208e-08
2.2674e-08
2.2183e-08
2.1716e-08
2.1264e-08
2.0825e-08
2.0398e-08
1.9982e-08
1.9579e-08
1.9188e-08
1.881e-08
1.8443e-08
1.8089e-08
1.7746e-08
1.7414e-08
1.7093e-08
1.6784e-08
1.6484e-08
1.6196e-08
1.5917e-08
1.5649e-08
1.5391e-08
1.5144e-08
1.4906e-08
1.4678e-08
1.446e-08
1.4252e-08
1.4053e-08
1.3863e-08
1.3682e-08
1.3511e-08
1.3348e-08
1.3194e-08
1.3048e-08
1.291e-08
1.278e-08
1.2657e-08
1.2542e-08
1.2434e-08
1.2333e-08
1.2238e-08
1.215e-08
1.2068e-08
1.1992e-08
1.1922e-08
1.1857e-08
1.1798e-08
1.1744e-08
1.1694e-08
1.165e-08
1.161e-08
1.1575e-08
1.1544e-08
1.1518e-08
1.1499e-08
1.148e-08
1.1442e-08
1.1364e-08
1.1338e-08
1.1578e-08
1.2259e-08
1.2559e-08
9.4402e-09
7.0877e-09
8.7815e-09
1.1315e-08
1.9227e-08
1
1
1
1
1
1
1
1
1
1
1
1
1
1
1
1
1
1
1
1
1
1
1
1
1
1
1
1
1
1
1
1
1
1
1
1
1
1
1
1
1
1
1
1
1
1
1
1
1
1
1
1
1
1
1
1
1
1
1
1
1
1
1
1
1
1
1
1
1
1
1
1
1
1
1
1
1
1
1
1
1
1
1
1
1
1
1
1
1
1
1
1
1
1
1
1
1
1
1
1
1
1
1
1
1
1
1
1
1
1
1
1
1
1
1
1
1
1
1
1
1
1
1
1
1
1
1
1
1
1
1
1
1
1
1
1
1
1
1
1
1
1
1
1
1
1
1
1
1
1
1
1
1
1
1
1
1
1
1
1
1
1
1
1
1
1
1
1
1
1
1
1
1
1
1
1
1
1
1
1
1
1
1
1
1
1
1
1
1
1
1
1
1
1
1
1
1
1
1
1
1
1
1
1
1
1
1
1
1
1
1
1
1
1
1
1
1
1
1
1
1
1
1
1
1
1
1
1
1
1
1
1
1
1
1
1
1
1
1
1
1
1
1
1
1
1
1
1
1
1
1
1
1
1
1
1
1
1
1
1
1
1
1
1
1
1
1
1
1
1
1
1
1
1
1
1
1
1
1
1
0.99998
0.99968
0.98973
0.66481
0.001873
6.855e-06
6.6941e-08
3.5306e-09
9.0082e-10
9.4142e-10
2.0742e-09
6.397e-09
2.4715e-08
8.2993e-08
2.4071e-07
5.0567e-07
8.1188e-07
1.0316e-06
1.1442e-06
1.1782e-06
1.1614e-06
1.1314e-06
1.1032e-06
1.0695e-06
1.0452e-06
1.0282e-06
1.0124e-06
9.9227e-07
9.6311e-07
9.2908e-07
9.2401e-07
1.0068e-06
1.2851e-06
1.5174e-06
1.2114e-06
8.5788e-07
3.9276e-07
1.8824e-07
7.3289e-08
4.4396e-08
2.2654e-08
1.6678e-08
1.3009e-08
1.4607e-08
1.6775e-08
2.1959e-08
2.569e-08
2.7626e-08
2.8129e-08
2.7684e-08
2.6812e-08
2.5819e-08
2.4899e-08
2.4106e-08
2.3441e-08
2.287e-08
2.2359e-08
2.1881e-08
2.1422e-08
2.0976e-08
2.0542e-08
2.012e-08
1.971e-08
1.9313e-08
1.8928e-08
1.8556e-08
1.8196e-08
1.7848e-08
1.7511e-08
1.7187e-08
1.6873e-08
1.657e-08
1.6278e-08
1.5997e-08
1.5727e-08
1.5467e-08
1.5217e-08
1.4977e-08
1.4748e-08
1.4528e-08
1.4318e-08
1.4118e-08
1.3926e-08
1.3744e-08
1.3571e-08
1.3407e-08
1.3251e-08
1.3103e-08
1.2963e-08
1.2831e-08
1.2707e-08
1.259e-08
1.248e-08
1.2376e-08
1.228e-08
1.219e-08
1.2105e-08
1.2027e-08
1.1955e-08
1.1889e-08
1.1828e-08
1.1772e-08
1.1722e-08
1.1676e-08
1.1635e-08
1.1599e-08
1.1569e-08
1.1545e-08
1.1523e-08
1.148e-08
1.14e-08
1.1371e-08
1.1608e-08
1.2289e-08
1.2587e-08
9.4602e-09
7.1021e-09
8.7984e-09
1.1336e-08
1.9261e-08
1
1
1
1
1
1
1
1
1
1
1
1
1
1
1
1
1
1
1
1
1
1
1
1
1
1
1
1
1
1
1
1
1
1
1
1
1
1
1
1
1
1
1
1
1
1
1
1
1
1
1
1
1
1
1
1
1
1
1
1
1
1
1
1
1
1
1
1
1
1
1
1
1
1
1
1
1
1
1
1
1
1
1
1
1
1
1
1
1
1
1
1
1
1
1
1
1
1
1
1
1
1
1
1
1
1
1
1
1
1
1
1
1
1
1
1
1
1
1
1
1
1
1
1
1
1
1
1
1
1
1
1
1
1
1
1
1
1
1
1
1
1
1
1
1
1
1
1
1
1
1
1
1
1
1
1
1
1
1
1
1
1
1
1
1
1
1
1
1
1
1
1
1
1
1
1
1
1
1
1
1
1
1
1
1
1
1
1
1
1
1
1
1
1
1
1
1
1
1
1
1
1
1
1
1
1
1
1
1
1
1
1
1
1
1
1
1
1
1
1
1
1
1
1
1
1
1
1
1
1
1
1
1
1
1
1
1
1
1
1
1
1
1
1
1
1
1
1
1
1
1
1
1
1
1
1
1
1
1
1
1
1
1
1
1
1
1
1
1
1
1
1
1
1
1
1
1
1
1
1
1
1
0.99997
0.99943
0.973
0.097436
0.00018513
1.0034e-06
2.4015e-08
3.0662e-09
1.4032e-09
1.5041e-09
3.475e-09
9.5796e-09
3.3379e-08
1.0224e-07
2.8046e-07
5.5328e-07
8.4462e-07
1.0423e-06
1.1292e-06
1.1537e-06
1.1449e-06
1.1104e-06
1.0812e-06
1.0562e-06
1.0365e-06
1.0152e-06
9.9107e-07
9.5542e-07
9.2806e-07
9.3813e-07
1.0384e-06
1.2941e-06
1.4114e-06
1.4941e-06
1.0843e-06
7.3606e-07
3.504e-07
1.983e-07
7.2352e-08
4.2929e-08
2.2092e-08
1.6391e-08
1.2813e-08
1.436e-08
1.6498e-08
2.1659e-08
2.5423e-08
2.7374e-08
2.7828e-08
2.7298e-08
2.6353e-08
2.5344e-08
2.445e-08
2.37e-08
2.3074e-08
2.2526e-08
2.2025e-08
2.1552e-08
2.1098e-08
2.0658e-08
2.023e-08
1.9815e-08
1.9411e-08
1.902e-08
1.8642e-08
1.8277e-08
1.7924e-08
1.7583e-08
1.7254e-08
1.6937e-08
1.663e-08
1.6336e-08
1.6052e-08
1.5779e-08
1.5516e-08
1.5264e-08
1.5023e-08
1.4792e-08
1.457e-08
1.4358e-08
1.4156e-08
1.3963e-08
1.378e-08
1.3605e-08
1.3439e-08
1.3281e-08
1.3131e-08
1.299e-08
1.2856e-08
1.2729e-08
1.261e-08
1.2498e-08
1.2392e-08
1.2294e-08
1.2202e-08
1.2116e-08
1.2036e-08
1.1962e-08
1.1894e-08
1.1832e-08
1.1775e-08
1.1724e-08
1.1677e-08
1.1636e-08
1.1601e-08
1.1573e-08
1.1546e-08
1.15e-08
1.1415e-08
1.1383e-08
1.1618e-08
1.2296e-08
1.2591e-08
9.462e-09
7.1024e-09
8.7976e-09
1.1335e-08
1.9257e-08
1
1
1
1
1
1
1
1
1
1
1
1
1
1
1
1
1
1
1
1
1
1
1
1
1
1
1
1
1
1
1
1
1
1
1
1
1
1
1
1
1
1
1
1
1
1
1
1
1
1
1
1
1
1
1
1
1
1
1
1
1
1
1
1
1
1
1
1
1
1
1
1
1
1
1
1
1
1
1
1
1
1
1
1
1
1
1
1
1
1
1
1
1
1
1
1
1
1
1
1
1
1
1
1
1
1
1
1
1
1
1
1
1
1
1
1
1
1
1
1
1
1
1
1
1
1
1
1
1
1
1
1
1
1
1
1
1
1
1
1
1
1
1
1
1
1
1
1
1
1
1
1
1
1
1
1
1
1
1
1
1
1
1
1
1
1
1
1
1
1
1
1
1
1
1
1
1
1
1
1
1
1
1
1
1
1
1
1
1
1
1
1
1
1
1
1
1
1
1
1
1
1
1
1
1
1
1
1
1
1
1
1
1
1
1
1
1
1
1
1
1
1
1
1
1
1
1
1
1
1
1
1
1
1
1
1
1
1
1
1
1
1
1
1
1
1
1
1
1
1
1
1
1
1
1
1
1
1
1
1
1
1
1
1
1
1
1
1
1
1
1
1
1
1
1
1
1
1
1
1
1
1
1
1
0.99992
0.99764
0.8902
0.013772
6.1052e-05
8.8054e-07
4.484e-08
6.1692e-09
2.8547e-09
2.5576e-09
4.9522e-09
1.223e-08
4.1568e-08
1.284e-07
3.2089e-07
5.9418e-07
8.6635e-07
1.0485e-06
1.1331e-06
1.1431e-06
1.1257e-06
1.0965e-06
1.0696e-06
1.0427e-06
1.0208e-06
9.8828e-07
9.5621e-07
9.2863e-07
9.3941e-07
1.0071e-06
1.1753e-06
1.5041e-06
1.6205e-06
1.6297e-06
1.12e-06
7.3286e-07
3.4124e-07
1.9184e-07
7.0548e-08
4.2017e-08
2.1714e-08
1.624e-08
1.2875e-08
1.4708e-08
1.7166e-08
2.2622e-08
2.6304e-08
2.7824e-08
2.7773e-08
2.6924e-08
2.5872e-08
2.4884e-08
2.4044e-08
2.3336e-08
2.2724e-08
2.2183e-08
2.1688e-08
2.1221e-08
2.0773e-08
2.0339e-08
1.9918e-08
1.9509e-08
1.9113e-08
1.8729e-08
1.8359e-08
1.8001e-08
1.7655e-08
1.7322e-08
1.7e-08
1.6691e-08
1.6392e-08
1.6106e-08
1.583e-08
1.5565e-08
1.5311e-08
1.5067e-08
1.4833e-08
1.461e-08
1.4396e-08
1.4192e-08
1.3997e-08
1.3811e-08
1.3634e-08
1.3466e-08
1.3306e-08
1.3154e-08
1.3011e-08
1.2874e-08
1.2746e-08
1.2624e-08
1.251e-08
1.2403e-08
1.2302e-08
1.2208e-08
1.2121e-08
1.204e-08
1.1965e-08
1.1896e-08
1.1832e-08
1.1775e-08
1.1722e-08
1.1675e-08
1.1635e-08
1.1602e-08
1.157e-08
1.152e-08
1.1431e-08
1.1395e-08
1.1627e-08
1.2302e-08
1.2595e-08
9.4626e-09
7.1014e-09
8.7949e-09
1.133e-08
1.9248e-08
1
1
1
1
1
1
1
1
1
1
1
1
1
1
1
1
1
1
1
1
1
1
1
1
1
1
1
1
1
1
1
1
1
1
1
1
1
1
1
1
1
1
1
1
1
1
1
1
1
1
1
1
1
1
1
1
1
1
1
1
1
1
1
1
1
1
1
1
1
1
1
1
1
1
1
1
1
1
1
1
1
1
1
1
1
1
1
1
1
1
1
1
1
1
1
1
1
1
1
1
1
1
1
1
1
1
1
1
1
1
1
1
1
1
1
1
1
1
1
1
1
1
1
1
1
1
1
1
1
1
1
1
1
1
1
1
1
1
1
1
1
1
1
1
1
1
1
1
1
1
1
1
1
1
1
1
1
1
1
1
1
1
1
1
1
1
1
1
1
1
1
1
1
1
1
1
1
1
1
1
1
1
1
1
1
1
1
1
1
1
1
1
1
1
1
1
1
1
1
1
1
1
1
1
1
1
1
1
1
1
1
1
1
1
1
1
1
1
1
1
1
1
1
1
1
1
1
1
1
1
1
1
1
1
1
1
1
1
1
1
1
1
1
1
1
1
1
1
1
1
1
1
1
1
1
1
1
1
1
1
1
1
1
1
1
1
1
1
1
1
1
1
1
1
1
1
1
1
1
1
1
1
1
1
1
0.99999
0.99977
0.99387
0.80953
0.010905
8.8876e-05
1.4498e-06
7.3447e-08
8.973e-09
3.764e-09
2.9807e-09
5.5473e-09
1.5006e-08
4.7706e-08
1.4372e-07
3.5061e-07
6.3819e-07
9.063e-07
1.0623e-06
1.1272e-06
1.1321e-06
1.1161e-06
1.087e-06
1.06e-06
1.0252e-06
9.9177e-07
9.5335e-07
9.291e-07
9.2111e-07
9.5081e-07
1.0394e-06
1.2113e-06
1.5149e-06
1.5982e-06
1.5898e-06
1.0856e-06
7.12e-07
3.3319e-07
1.8735e-07
6.9314e-08
4.2049e-08
2.2574e-08
1.778e-08
1.4726e-08
1.7073e-08
1.9526e-08
2.4546e-08
2.7175e-08
2.7803e-08
2.7317e-08
2.6398e-08
2.5406e-08
2.4481e-08
2.3664e-08
2.2966e-08
2.2365e-08
2.1836e-08
2.1351e-08
2.0895e-08
2.0455e-08
2.0029e-08
1.9615e-08
1.9214e-08
1.8824e-08
1.8448e-08
1.8085e-08
1.7734e-08
1.7396e-08
1.7071e-08
1.6757e-08
1.6456e-08
1.6165e-08
1.5886e-08
1.5619e-08
1.5362e-08
1.5115e-08
1.4879e-08
1.4653e-08
1.4437e-08
1.423e-08
1.4033e-08
1.3845e-08
1.3666e-08
1.3495e-08
1.3333e-08
1.3178e-08
1.3032e-08
1.2894e-08
1.2763e-08
1.2639e-08
1.2523e-08
1.2414e-08
1.2312e-08
1.2216e-08
1.2127e-08
1.2044e-08
1.1968e-08
1.1898e-08
1.1834e-08
1.1775e-08
1.1723e-08
1.1677e-08
1.1638e-08
1.1602e-08
1.1546e-08
1.1453e-08
1.1413e-08
1.1641e-08
1.2314e-08
1.2603e-08
9.4665e-09
7.1026e-09
8.7944e-09
1.1328e-08
1.9242e-08
1
1
1
1
1
1
1
1
1
1
1
1
1
1
1
1
1
1
1
1
1
1
1
1
1
1
1
1
1
1
1
1
1
1
1
1
1
1
1
1
1
1
1
1
1
1
1
1
1
1
1
1
1
1
1
1
1
1
1
1
1
1
1
1
1
1
1
1
1
1
1
1
1
1
1
1
1
1
1
1
1
1
1
1
1
1
1
1
1
1
1
1
1
1
1
1
1
1
1
1
1
1
1
1
1
1
1
1
1
1
1
1
1
1
1
1
1
1
1
1
1
1
1
1
1
1
1
1
1
1
1
1
1
1
1
1
1
1
1
1
1
1