/*--------------------------------*- C++ -*----------------------------------*\
| =========                 |                                                 |
| \\      /  F ield         | OpenFOAM: The Open Source CFD Toolbox           |
|  \\    /   O peration     | Version:  5.x                                   |
|   \\  /    A nd           | Web:      www.OpenFOAM.org                      |
|    \\/     M anipulation  |                                                 |
\*---------------------------------------------------------------------------*/
FoamFile
{
    version     2.0;
    format      ascii;
    class       volSymmTensorField;
    location    "25";
    object      sigmaD;
}
// * * * * * * * * * * * * * * * * * * * * * * * * * * * * * * * * * * * * * //

dimensions      [0 2 -2 0 0 0 0];

internalField   nonuniform List<symmTensor> 
80000
(
(66502 4957.8 0 3603 0 16178)
(50040 2060.4 0 239.54 0 11603)
(44261 1089 0 -82.147 0 10195)
(40898 752.01 0 -15.733 0 9434.3)
(38444 601.42 0 25.895 0 8877.8)
(36450 510.6 0 32.97 0 8419.2)
(34746 446.26 0 28.479 0 8025)
(33248 397.82 0 22.572 0 7677.9)
(31905 360.11 0 17.732 0 7366.7)
(30682 329.8 0 14.044 0 7083.7)
(29557 304.59 0 11.161 0 6823.5)
(28515 282.94 0 8.7969 0 6582.5)
(27545 263.83 0 6.7761 0 6358.2)
(26640 246.6 0 5.0009 0 6148.8)
(25793 230.81 0 3.4175 0 5953)
(25000 216.18 0 2.0017 0 5769.8)
(24258 202.53 0 0.74339 0 5598.2)
(23563 189.73 0 -0.36312 0 5437.6)
(22913 177.7 0 -1.3243 0 5287.2)
(22304 166.37 0 -2.1456 0 5146.6)
(21735 155.68 0 -2.8302 0 5015)
(21203 145.6 0 -3.382 0 4892.1)
(20705 136.07 0 -3.8088 0 4777.3)
(20242 127.06 0 -4.1199 0 4670.2)
(19809 118.52 0 -4.3266 0 4570.3)
(19406 110.43 0 -4.4394 0 4477.3)
(19031 102.75 0 -4.4653 0 4390.8)
(18683 95.452 0 -4.4092 0 4310.5)
(18361 88.502 0 -4.2786 0 4236.1)
(18062 81.868 0 -4.0814 0 4167.3)
(17787 75.521 0 -3.8239 0 4103.8)
(17534 69.435 0 -3.5092 0 4045.4)
(17302 63.584 0 -3.1407 0 3992)
(17090 57.944 0 -2.7213 0 3943.2)
(16898 52.491 0 -2.2541 0 3899)
(16725 47.208 0 -1.741 0 3859.3)
(16571 42.079 0 -1.1838 0 3823.8)
(16435 37.089 0 -0.58349 0 3792.5)
(16316 32.229 0 0.058927 0 3765.2)
(16214 27.491 0 0.74307 0 3741.9)
(16129 22.874 0 1.4683 0 3722.4)
(16060 18.375 0 2.2343 0 3706.7)
(16007 13.999 0 3.0403 0 3694.7)
(15970 9.751 0 3.8859 0 3686.2)
(15947 5.6421 0 4.7695 0 3681.2)
(15939 1.686 0 5.6897 0 3679.5)
(15944 -2.1 0 6.6439 0 3681)
(15963 -5.6942 0 7.6292 0 3685.6)
(15994 -9.0716 0 8.6415 0 3693)
(16037 -12.203 0 9.6761 0 3703.1)
(16091 -15.058 0 10.727 0 3715.7)
(16154 -17.601 0 11.787 0 3730.5)
(16225 -19.798 0 12.849 0 3747.3)
(16304 -21.612 0 13.903 0 3765.7)
(16388 -23.009 0 14.94 0 3785.4)
(16477 -23.957 0 15.949 0 3806)
(16567 -24.432 0 16.919 0 3827.1)
(16658 -24.416 0 17.841 0 3848.4)
(16748 -23.899 0 18.702 0 3869.3)
(16835 -22.888 0 19.495 0 3889.5)
(16917 -21.401 0 20.21 0 3908.5)
(16992 -19.472 0 20.839 0 3926)
(17059 -17.15 0 21.378 0 3941.6)
(17116 -14.498 0 21.821 0 3954.9)
(17163 -11.592 0 22.165 0 3965.8)
(17198 -8.5183 0 22.41 0 3974)
(17222 -5.3665 0 22.556 0 3979.5)
(17233 -2.2301 0 22.605 0 3982.2)
(17233 0.8002 0 22.563 0 3982.1)
(17222 3.6407 0 22.434 0 3979.5)
(17201 6.2187 0 22.225 0 3974.6)
(17170 8.4763 0 21.945 0 3967.5)
(17132 10.372 0 21.604 0 3958.5)
(17087 11.885 0 21.208 0 3948.1)
(17038 13.015 0 20.763 0 3936.6)
(16984 13.786 0 20.275 0 3924.2)
(16929 14.24 0 19.751 0 3911.2)
(16872 14.421 0 19.206 0 3898)
(16815 14.375 0 18.655 0 3884.8)
(16759 14.136 0 18.116 0 3871.6)
(16704 13.733 0 17.599 0 3858.7)
(16650 13.188 0 17.098 0 3846.3)
(16598 12.533 0 16.619 0 3834.2)
(16549 11.797 0 16.169 0 3822.8)
(16503 11.005 0 15.717 0 3812)
(16460 10.168 0 15.268 0 3801.9)
(16419 9.3224 0 14.88 0 3792.5)
(16382 8.5143 0 14.555 0 3783.9)
(16349 7.7573 0 14.235 0 3776)
(16318 6.9576 0 13.913 0 3769)
(16292 6.2224 0 13.558 0 3762.8)
(16269 5.7904 0 13.053 0 3757.4)
(16251 5.7043 0 12.51 0 3753.2)
(16228 5.9576 0 12.184 0 3747.8)
(16204 6.5221 0 11.859 0 3742.1)
(16183 7.2491 0 11.471 0 3737.1)
(16150 7.98 0 11.363 0 3729.6)
(16116 8.7618 0 11.191 0 3721.6)
(16089 9.868 0 10.764 0 3715.4)
(16046 11.125 0 10.758 0 3705.3)
(15996 12.119 0 11.191 0 3694)
(15944 12.291 0 11.632 0 3682.1)
(15894 11.535 0 12.075 0 3670.5)
(15840 10.272 0 12.164 0 3658.2)
(15812 9.2324 0 11.615 0 3651.5)
(15773 8.8058 0 11.093 0 3642.4)
(15735 8.5804 0 10.853 0 3633.7)
(15699 8.3903 0 10.612 0 3625.3)
(15664 8.225 0 10.35 0 3617.2)
(15630 8.1048 0 10.091 0 3609.2)
(15596 8.0342 0 9.8478 0 3601.3)
(15562 8.0021 0 9.6197 0 3593.5)
(15528 7.9957 0 9.3964 0 3585.6)
(15494 8.0064 0 9.1727 0 3577.7)
(15460 8.0296 0 8.9456 0 3569.8)
(15426 8.0626 0 8.7156 0 3561.9)
(15392 8.1035 0 8.4817 0 3553.9)
(15357 8.1509 0 8.2442 0 3545.9)
(15322 8.2036 0 8.0018 0 3537.8)
(15287 8.2608 0 7.7548 0 3529.6)
(15252 8.3218 0 7.5018 0 3521.4)
(15216 8.3858 0 7.2433 0 3513.1)
(15180 8.4512 0 6.9782 0 3504.8)
(15144 8.5157 0 6.7073 0 3496.4)
(15108 8.5756 0 6.4299 0 3487.9)
(15071 8.6252 0 6.1475 0 3479.4)
(15034 8.6567 0 5.8603 0 3470.8)
(14997 8.6602 0 5.5706 0 3462.2)
(14960 8.6232 0 5.2794 0 3453.6)
(14923 8.5318 0 4.9897 0 3445)
(14887 8.3711 0 4.7029 0 3436.5)
(14851 8.1265 0 4.4224 0 3428.2)
(14816 7.785 0 4.1495 0 3420.1)
(14783 7.3365 0 3.8871 0 3412.4)
(14752 6.775 0 3.6363 0 3405.1)
(14722 6.0993 0 3.3999 0 3398.3)
(14696 5.3128 0 3.1787 0 3392.1)
(14672 4.423 0 2.9759 0 3386.6)
(14653 3.4407 0 2.7928 0 3382)
(14636 2.3781 0 2.6328 0 3378.2)
(14624 1.2479 0 2.4978 0 3375.4)
(14616 0.06158 0 2.3914 0 3373.5)
(14613 -1.171 0 2.3154 0 3372.7)
(14614 -2.4418 0 2.2726 0 3373)
(14620 -3.7448 0 2.2641 0 3374.4)
(14631 -5.0743 0 2.2915 0 3376.9)
(14647 -6.4244 0 2.3541 0 3380.5)
(14667 -7.7877 0 2.4524 0 3385.4)
(14693 -9.1546 0 2.5841 0 3391.3)
(14724 -10.512 0 2.7486 0 3398.5)
(14760 -11.845 0 2.9431 0 3406.8)
(14801 -13.137 0 3.167 0 3416.2)
(14846 -14.369 0 3.4176 0 3426.8)
(14896 -15.526 0 3.6941 0 3438.3)
(14949 -16.592 0 3.9941 0 3450.8)
(15007 -17.555 0 4.3162 0 3464.2)
(15068 -18.408 0 4.6572 0 3478.3)
(15132 -19.143 0 5.015 0 3493.1)
(15198 -19.759 0 5.386 0 3508.5)
(15267 -20.257 0 5.7682 0 3524.4)
(15337 -20.64 0 6.1586 0 3540.7)
(15408 -20.917 0 6.5562 0 3557.2)
(15480 -21.097 0 6.9589 0 3573.9)
(15552 -21.192 0 7.3662 0 3590.7)
(15625 -21.213 0 7.776 0 3607.6)
(15698 -21.171 0 8.1872 0 3624.5)
(15770 -21.073 0 8.5971 0 3641.3)
(15842 -20.92 0 9.0042 0 3658)
(15914 -20.71 0 9.4052 0 3674.6)
(15984 -20.433 0 9.7982 0 3691)
(16054 -20.078 0 10.179 0 3707.1)
(16122 -19.626 0 10.545 0 3722.9)
(16188 -19.056 0 10.891 0 3738.2)
(16252 -18.346 0 11.213 0 3753.1)
(16313 -17.475 0 11.503 0 3767.3)
(16371 -16.425 0 11.759 0 3780.6)
(16424 -15.186 0 11.973 0 3793)
(16473 -13.758 0 12.145 0 3804.2)
(16516 -12.152 0 12.271 0 3814.2)
(16553 -10.395 0 12.353 0 3822.7)
(16582 -8.5285 0 12.39 0 3829.6)
(16605 -6.6023 0 12.386 0 3834.9)
(16621 -4.6754 0 12.342 0 3838.5)
(16630 -2.8076 0 12.261 0 3840.5)
(16632 -1.0528 0 12.145 0 3840.9)
(16628 0.54654 0 11.996 0 3839.9)
(16618 1.9657 0 11.811 0 3837.6)
(16603 3.2005 0 11.593 0 3834.2)
(16585 4.265 0 11.342 0 3829.9)
(16563 5.1885 0 11.063 0 3824.7)
(16538 6.0094 0 10.758 0 3818.9)
(16510 6.7701 0 10.435 0 3812.4)
(16479 7.5114 0 10.096 0 3805.3)
(16446 8.2677 0 9.7466 0 3797.6)
(16411 9.0643 0 9.3897 0 3789.3)
(16372 9.9161 0 9.0276 0 3780.3)
(16331 10.827 0 8.6609 0 3770.6)
(16286 11.79 0 8.2904 0 3760.2)
(16237 12.792 0 7.9156 0 3748.9)
(16185 13.809 0 7.5376 0 3736.8)
(16130 14.815 0 7.1565 0 3723.9)
(16070 15.78 0 6.7746 0 3710.1)
(16008 16.673 0 6.3932 0 3695.6)
(15942 17.465 0 6.0157 0 3680.4)
(15874 18.132 0 5.6437 0 3664.5)
(15804 18.658 0 5.2801 0 3648.2)
(15732 19.036 0 4.9255 0 3631.6)
(15659 19.269 0 4.5808 0 3614.7)
(15586 19.373 0 4.2453 0 3597.8)
(15513 19.371 0 3.919 0 3580.8)
(15440 19.292 0 3.6011 0 3563.9)
(15368 19.165 0 3.293 0 3547.2)
(15296 19.013 0 2.9963 0 3530.6)
(15225 18.849 0 2.7157 0 3514.1)
(15155 18.669 0 2.4561 0 3497.8)
(15085 18.451 0 2.2247 0 3481.7)
(15017 18.155 0 2.0279 0 3465.9)
(14949 17.727 0 1.8731 0 3450.3)
(14884 17.104 0 1.7668 0 3435.2)
(14821 16.223 0 1.7162 0 3420.7)
(14763 15.021 0 1.7285 0 3407.1)
(14709 13.447 0 1.8132 0 3394.8)
(14662 11.464 0 1.9794 0 3383.9)
(14623 9.0539 0 2.2401 0 3375)
(14594 6.2152 0 2.6084 0 3368.4)
(14576 2.9676 0 3.098 0 3364.4)
(14571 -0.64596 0 3.7189 0 3363.4)
(14581 -4.558 0 4.4797 0 3365.8)
(14605 -8.6746 0 5.383 0 3371.7)
(14646 -12.876 0 6.4299 0 3381.2)
(14702 -17.023 0 7.6179 0 3394.5)
(14773 -20.96 0 8.9423 0 3411.3)
(14860 -24.526 0 10.394 0 3431.5)
(14958 -27.556 0 11.963 0 3454.7)
(15067 -29.897 0 13.634 0 3480.2)
(15184 -31.409 0 15.391 0 3507.6)
(15305 -31.969 0 17.214 0 3536)
(15427 -31.475 0 19.077 0 3564.5)
(15545 -29.847 0 20.951 0 3592.2)
(15655 -27.019 0 22.803 0 3618.1)
(15753 -22.938 0 24.596 0 3641.1)
(15834 -17.559 0 26.287 0 3660.2)
(15894 -10.837 0 27.827 0 3674.2)
(15926 -2.717 0 29.163 0 3681.9)
(15926 6.8677 0 30.228 0 3682.1)
(15887 18.006 0 30.947 0 3673.5)
(15806 30.811 0 31.232 0 3654.6)
(15673 45.414 0 31.003 0 3624)
(15483 61.962 0 30.208 0 3580)
(15227 80.66 0 28.813 0 3520.5)
(14896 101.95 0 26.53 0 3443.6)
(14491 126.91 0 23.068 0 3349.4)
(13986 156.15 0 18.696 0 3231.9)
(13371 188.99 0 14.566 0 3089.1)
(12599 221.67 0 11.648 0 2910.2)
(11707 250.73 0 9.3155 0 2703.6)
(10687 274.05 0 5.9701 0 2467.5)
(9608.3 295.35 0 -0.70455 0 2217.1)
(8465.7 320.1 0 -10.352 0 1951.2)
(7216 347.51 0 -18.912 0 1660.9)
(5796.1 364.77 0 -21.214 0 1332.7)
(4263.8 355.49 0 -16.3 0 980.19)
(2742.9 304.05 0 -6.9093 0 631.38)
(1380.4 196.69 0 3.0389 0 319.26)
(428.78 67.972 0 6.3545 0 100.42)
(115.54 17.064 0 2.8699 0 27.326)
(32.114 4.3881 0 0.98772 0 7.6388)
(9.3415 1.1849 0 0.30222 0 2.2255)
(3.1415 0.36824 0 0.099704 0 0.74796)
(1.3236 0.13554 0 0.039227 0 0.31451)
(0.72434 0.062562 0 0.019756 0 0.17171)
(0.49055 0.034305 0 0.010325 0 0.11559)
(0.38172 0.022055 0 0.0050757 0 0.089261)
(0.31818 0.01645 0 0.0012845 0 0.073723)
(0.26735 0.013426 0 0.0005978 0 0.061833)
(0.20851 0.0099829 0 0.0026582 0 0.048731)
(0.1598 0.0055813 0 0.0037292 0 0.037739)
(0.13382 0.0008896 0 0.0040527 0 0.031816)
(0.14061 -0.004324 0 0.0050386 0 0.033611)
(0.16618 -0.012069 0 0.0066651 0 0.039888)
(0.26468 -0.023158 0 0.0069872 0 0.062693)
(0.39787 -0.023711 0 0.0027962 0 0.092461)
(0.51895 -0.0052093 0 -0.0068347 0 0.11818)
(0.53697 0.021352 0 -0.013508 0 0.1208)
(0.40208 0.030399 0 -0.0051072 0 0.091608)
(0.3023 0.026355 0 0.003785 0 0.070634)
(0.21352 0.017587 0 0.0080089 0 0.051121)
(0.17066 0.011899 0 0.0071054 0 0.041022)
(0.14458 0.0077331 0 0.0043713 0 0.034372)
(0.15102 0.0061997 0 0.0019617 0 0.035304)
(0.13029 0.0046423 0 -3.4344e-05 0 0.030058)
(0.11543 0.003809 0 -0.00030517 0 0.026568)
(0.1036 0.0033559 0 -0.00018027 0 0.023867)
(0.093253 0.0030347 0 -5.3663e-05 0 0.021507)
(0.083638 0.0027322 0 1.484e-05 0 0.019304)
(0.07523 0.0024584 0 2.7064e-05 0 0.017367)
(0.067751 0.0022347 0 4.5202e-06 0 0.015636)
(0.060752 0.0020551 0 -2.7225e-05 0 0.014013)
(0.054399 0.0019302 0 -5.4114e-05 0 0.012541)
(0.048155 0.001833 0 -7.0423e-05 0 0.011096)
(0.042219 0.0017433 0 -8.115e-05 0 0.0097241)
(0.036542 0.0016506 0 -9.1163e-05 0 0.0084117)
(0.031151 0.0015532 0 -0.00010022 0 0.0071656)
(0.02612 0.0014551 0 -0.00011045 0 0.0060022)
(0.021412 0.0013532 0 -0.00011916 0 0.0049137)
(0.017029 0.0012386 0 -0.00012226 0 0.0039017)
(0.013085 0.0011054 0 -0.0001134 0 0.0029934)
(0.0096367 0.00093892 0 -8.5502e-05 0 0.0022041)
(0.0068266 0.00072514 0 -3.4092e-05 0 0.0015675)
(0.0048535 0.00047461 0 3.0727e-05 0 0.0011271)
(0.003786 0.00022014 0 8.3881e-05 0 0.00089305)
(0.0035291 1.3377e-05 0 0.00010164 0 0.00083786)
(0.0038524 -0.00010525 0 7.9205e-05 0 0.0009073)
(0.0048669 -7.4206e-05 0 -3.6354e-05 0 0.0011147)
(0.0059527 0.00017498 0 -0.000297 0 0.0013052)
(0.0041831 0.00032951 0 -0.00016466 0 0.00092733)
(0.0029028 0.00030149 0 3.8155e-05 0 0.00067869)
(0.0018274 0.00019936 0 0.00012424 0 0.00045037)
(0.0013453 0.00013469 0 0.00011186 0 0.00033628)
(0.0010608 8.8959e-05 0 6.6816e-05 0 0.00026023)
(0.0010597 7.5938e-05 0 3.3939e-05 0 0.00025238)
(0.00080545 5.2186e-05 0 2.3432e-06 0 0.00018641)
(0.00064592 3.7622e-05 0 -4.7343e-06 0 0.00014797)
(0.00053783 2.9907e-05 0 -4.4414e-06 0 0.00012309)
(0.00045199 2.5449e-05 0 -3.3239e-06 0 0.00010354)
(0.00037686 2.246e-05 0 -2.5913e-06 0 8.6369e-05)
(0.00030825 2.016e-05 0 -2.1563e-06 0 7.0638e-05)
(0.00024544 1.8258e-05 0 -1.8624e-06 0 5.6209e-05)
(0.00018782 1.6618e-05 0 -1.6546e-06 0 4.2961e-05)
(0.00013485 1.5164e-05 0 -1.5084e-06 0 3.0772e-05)
(8.6107e-05 1.3848e-05 0 -1.4087e-06 0 1.9546e-05)
(4.1256e-05 1.2638e-05 0 -1.3411e-06 0 9.2111e-06)
(3.9496e-08 1.1518e-05 0 -1.2965e-06 0 -2.9007e-07)
(-3.7768e-05 1.0476e-05 0 -1.2666e-06 0 -9.008e-06)
(-7.2374e-05 9.5039e-06 0 -1.2474e-06 0 -1.699e-05)
(-0.00010397 8.5977e-06 0 -1.2341e-06 0 -2.4279e-05)
(-0.00013275 7.7534e-06 0 -1.2253e-06 0 -3.0918e-05)
(-0.00015889 6.9675e-06 0 -1.2179e-06 0 -3.6949e-05)
(-0.00018257 6.2369e-06 0 -1.2116e-06 0 -4.2411e-05)
(-0.00020394 5.5578e-06 0 -1.2045e-06 0 -4.734e-05)
(-0.00022315 4.9266e-06 0 -1.197e-06 0 -5.1773e-05)
(-0.00024036 4.3394e-06 0 -1.1879e-06 0 -5.5742e-05)
(-0.00025569 3.7927e-06 0 -1.178e-06 0 -5.9277e-05)
(-0.00026926 3.2827e-06 0 -1.1665e-06 0 -6.2406e-05)
(-0.00028118 2.8064e-06 0 -1.1542e-06 0 -6.5154e-05)
(-0.00029155 2.3606e-06 0 -1.1407e-06 0 -6.7545e-05)
(-0.00030047 1.9429e-06 0 -1.1264e-06 0 -6.96e-05)
(-0.00030802 1.5505e-06 0 -1.111e-06 0 -7.1337e-05)
(-0.00031427 1.1815e-06 0 -1.095e-06 0 -7.2776e-05)
(-0.0003193 8.3378e-07 0 -1.078e-06 0 -7.3932e-05)
(-0.00032316 5.0574e-07 0 -1.0603e-06 0 -7.4821e-05)
(-0.00032593 1.9562e-07 0 -1.0415e-06 0 -7.5456e-05)
(-0.00032766 -9.7866e-08 0 -1.0221e-06 0 -7.585e-05)
(-0.0003284 -3.7615e-07 0 -1.0016e-06 0 -7.6016e-05)
(-0.0003282 -6.4024e-07 0 -9.8039e-07 0 -7.5964e-05)
(-0.0003271 -8.913e-07 0 -9.5811e-07 0 -7.5705e-05)
(-0.00032514 -1.1301e-06 0 -9.3505e-07 0 -7.5248e-05)
(-0.00032237 -1.3575e-06 0 -9.109e-07 0 -7.4604e-05)
(-0.00031883 -1.5741e-06 0 -8.8593e-07 0 -7.378e-05)
(-0.00031455 -1.7805e-06 0 -8.5984e-07 0 -7.2786e-05)
(-0.00030956 -1.9772e-06 0 -8.329e-07 0 -7.1628e-05)
(-0.0003039 -2.1646e-06 0 -8.0485e-07 0 -7.0316e-05)
(-0.0002976 -2.3428e-06 0 -7.7592e-07 0 -6.8856e-05)
(-0.0002907 -2.5122e-06 0 -7.4588e-07 0 -6.7257e-05)
(-0.00028323 -2.6727e-06 0 -7.1497e-07 0 -6.5525e-05)
(-0.00027521 -2.8245e-06 0 -6.83e-07 0 -6.3668e-05)
(-0.00026669 -2.9674e-06 0 -6.5018e-07 0 -6.1693e-05)
(-0.00025769 -3.1014e-06 0 -6.1638e-07 0 -5.9608e-05)
(-0.00024824 -3.226e-06 0 -5.8182e-07 0 -5.7422e-05)
(-0.0002384 -3.3412e-06 0 -5.4637e-07 0 -5.5141e-05)
(-0.00022818 -3.4463e-06 0 -5.1028e-07 0 -5.2774e-05)
(-0.00021762 -3.541e-06 0 -4.7346e-07 0 -5.033e-05)
(-0.00020677 -3.6247e-06 0 -4.3618e-07 0 -4.7818e-05)
(-0.00019567 -3.6967e-06 0 -3.9836e-07 0 -4.5247e-05)
(-0.00018436 -3.7563e-06 0 -3.6032e-07 0 -4.2627e-05)
(-0.00017288 -3.8029e-06 0 -3.2199e-07 0 -3.997e-05)
(-0.00016129 -3.8355e-06 0 -2.8373e-07 0 -3.7285e-05)
(-0.00014962 -3.8532e-06 0 -2.455e-07 0 -3.4585e-05)
(-0.00013795 -3.8553e-06 0 -2.0773e-07 0 -3.1882e-05)
(-0.00012631 -3.8407e-06 0 -1.7041e-07 0 -2.9189e-05)
(-0.00011478 -3.8086e-06 0 -1.3401e-07 0 -2.6519e-05)
(-0.00010342 -3.7581e-06 0 -9.8575e-08 0 -2.3888e-05)
(-9.2276e-05 -3.6882e-06 0 -6.4672e-08 0 -2.1309e-05)
(-8.143e-05 -3.5982e-06 0 -3.2423e-08 0 -1.8799e-05)
(-7.0948e-05 -3.4872e-06 0 -2.5538e-09 0 -1.6373e-05)
(-6.09e-05 -3.3548e-06 0 2.4798e-08 0 -1.4048e-05)
(-5.1361e-05 -3.2007e-06 0 4.9188e-08 0 -1.1841e-05)
(-4.2405e-05 -3.0253e-06 0 7.1162e-08 0 -9.7693e-06)
(-3.4103e-05 -2.8282e-06 0 9.0107e-08 0 -7.8492e-06)
(-2.6521e-05 -2.6059e-06 0 1.0306e-07 0 -6.0964e-06)
(-1.9725e-05 -2.3532e-06 0 1.0246e-07 0 -4.5283e-06)
(-1.3844e-05 -2.077e-06 0 8.4515e-08 0 -3.1752e-06)
(-8.9838e-06 -1.8023e-06 0 5.854e-08 0 -2.0597e-06)
(-5.1457e-06 -1.5661e-06 0 5.4921e-08 0 -1.1748e-06)
(-2.0753e-06 -1.3492e-06 0 1.0189e-07 0 -4.5539e-07)
(2.8211e-07 -9.7912e-07 0 1.338e-07 0 9.5978e-08)
(1.5143e-06 -6.895e-07 0 1.1383e-07 0 3.7572e-07)
(2.406e-06 -5.7985e-07 0 1.4001e-07 0 5.8753e-07)
(2.4509e-06 -3.9273e-07 0 1.8935e-07 0 6.0928e-07)
(9.3135e-07 -5.6614e-10 0 -4.0874e-07 0 1.206e-07)
(45022 11573 0 6644.6 0 11923)
(46149 7684.8 0 2066.5 0 11127)
(43384 5267.8 0 783.84 0 10193)
(40519 3861.9 0 476.55 0 9460.5)
(38161 3066.3 0 364.92 0 8890.6)
(36220 2578.7 0 284.52 0 8424.1)
(34563 2247.1 0 219.37 0 8026.7)
(33105 2003.3 0 170.51 0 7679)
(31796 1814.5 0 136 0 7368.9)
(30603 1662.3 0 112.19 0 7088.2)
(29507 1535.5 0 95.699 0 6831.5)
(28493 1426.4 0 84.05 0 6594.6)
(27549 1330.2 0 75.545 0 6374.9)
(26668 1243.6 0 69.069 0 6170.1)
(25844 1164.3 0 63.897 0 5978.7)
(25072 1091 0 59.583 0 5799.5)
(24348 1022.7 0 55.85 0 5631.6)
(23668 958.77 0 52.525 0 5474)
(23030 898.64 0 49.497 0 5326.1)
(22432 842.01 0 46.692 0 5187.4)
(21871 788.58 0 44.074 0 5057.3)
(21345 738.12 0 41.632 0 4935.4)
(20852 690.41 0 39.356 0 4821.1)
(20390 645.26 0 37.234 0 4714.1)
(19958 602.47 0 35.255 0 4613.9)
(19555 561.9 0 33.413 0 4520.3)
(19178 523.36 0 31.712 0 4433)
(18826 486.71 0 30.158 0 4351.5)
(18499 451.79 0 28.747 0 4275.7)
(18195 418.45 0 27.463 0 4205.2)
(17914 386.54 0 26.297 0 4140)
(17653 355.94 0 25.246 0 4079.6)
(17413 326.5 0 24.305 0 4024)
(17193 298.12 0 23.464 0 3973)
(16991 270.69 0 22.713 0 3926.3)
(16809 244.12 0 22.038 0 3884)
(16643 218.32 0 21.427 0 3845.7)
(16496 193.24 0 20.866 0 3811.5)
(16365 168.82 0 20.342 0 3781.2)
(16250 145.03 0 19.839 0 3754.6)
(16151 121.86 0 19.345 0 3731.7)
(16068 99.298 0 18.845 0 3712.4)
(16000 77.363 0 18.325 0 3696.6)
(15947 56.088 0 17.768 0 3684.1)
(15907 35.521 0 17.161 0 3674.8)
(15881 15.729 0 16.486 0 3668.7)
(15869 -3.201 0 15.726 0 3665.6)
(15868 -21.167 0 14.866 0 3665.3)
(15880 -38.046 0 13.888 0 3667.7)
(15902 -53.7 0 12.778 0 3672.6)
(15934 -67.977 0 11.524 0 3679.8)
(15976 -80.711 0 10.115 0 3689)
(16025 -91.734 0 8.5478 0 3700.1)
(16082 -100.87 0 6.8232 0 3712.7)
(16144 -107.96 0 4.9501 0 3726.6)
(16210 -112.86 0 2.9462 0 3741.4)
(16279 -115.43 0 0.83975 0 3756.9)
(16349 -115.6 0 -1.3304 0 3772.6)
(16419 -113.34 0 -3.5144 0 3788.2)
(16487 -108.65 0 -5.653 0 3803.4)
(16552 -101.65 0 -7.68 0 3817.9)
(16612 -92.483 0 -9.5259 0 3831.3)
(16666 -81.398 0 -11.124 0 3843.4)
(16713 -68.7 0 -12.413 0 3853.9)
(16751 -54.754 0 -13.345 0 3862.6)
(16781 -39.97 0 -13.885 0 3869.4)
(16802 -24.789 0 -14.014 0 3874.2)
(16813 -9.6561 0 -13.733 0 3876.9)
(16816 4.9902 0 -13.061 0 3877.5)
(16809 18.747 0 -12.037 0 3876.2)
(16794 31.263 0 -10.723 0 3873.1)
(16772 42.261 0 -9.1868 0 3868.3)
(16743 51.54 0 -7.5076 0 3862.1)
(16709 58.99 0 -5.7776 0 3854.7)
(16671 64.604 0 -4.1078 0 3846.2)
(16630 68.491 0 -2.5999 0 3837.1)
(16586 70.841 0 -1.3054 0 3827.3)
(16542 71.871 0 -0.22605 0 3817.3)
(16497 71.785 0 0.66591 0 3807.1)
(16452 70.756 0 1.4337 0 3796.9)
(16407 68.91 0 2.1114 0 3786.8)
(16365 66.374 0 2.6358 0 3777.1)
(16324 63.293 0 3.0069 0 3767.7)
(16285 59.845 0 3.2774 0 3758.8)
(16249 56.207 0 3.3271 0 3750.5)
(16215 52.373 0 3.1907 0 3742.7)
(16185 48.584 0 3.143 0 3735.8)
(16158 45.215 0 3.1206 0 3729.4)
(16132 42.359 0 2.6783 0 3723.3)
(16107 39.812 0 1.9341 0 3717.5)
(16078 37.822 0 1.2598 0 3710.6)
(16047 36.664 0 0.25866 0 3703.2)
(16019 36.311 0 -0.78641 0 3696.5)
(15986 36.956 0 -0.98282 0 3688.8)
(15953 38.604 0 -1.45 0 3681.2)
(15930 41.073 0 -2.6011 0 3675.4)
(15895 43.941 0 -2.7852 0 3667.4)
(15858 47.225 0 -2.6855 0 3658.8)
(15825 50.865 0 -3.1133 0 3651.3)
(15787 54.113 0 -2.3368 0 3642.6)
(15748 56.355 0 -0.7237 0 3633.9)
(15722 56.615 0 0.34249 0 3628.2)
(15690 54.737 0 1.6242 0 3621.1)
(15654 51.471 0 2.4384 0 3613.1)
(15630 48.543 0 1.699 0 3607.3)
(15598 46.918 0 0.95922 0 3599.8)
(15567 45.801 0 0.81007 0 3592.6)
(15537 44.984 0 0.65304 0 3585.6)
(15507 44.398 0 0.42228 0 3578.7)
(15478 44.019 0 0.18834 0 3571.9)
(15449 43.818 0 0.011867 0 3565.1)
(15419 43.755 0 -0.099788 0 3558.3)
(15390 43.794 0 -0.1706 0 3551.5)
(15360 43.907 0 -0.2211 0 3544.7)
(15331 44.075 0 -0.2607 0 3537.9)
(15301 44.284 0 -0.29245 0 3531)
(15271 44.526 0 -0.31792 0 3524.1)
(15241 44.794 0 -0.33865 0 3517.2)
(15211 45.081 0 -0.35628 0 3510.2)
(15181 45.385 0 -0.37179 0 3503.2)
(15151 45.701 0 -0.38527 0 3496.2)
(15120 46.026 0 -0.39533 0 3489.1)
(15089 46.351 0 -0.39896 0 3482)
(15058 46.665 0 -0.39105 0 3474.8)
(15027 46.949 0 -0.36447 0 3467.6)
(14995 47.176 0 -0.31004 0 3460.4)
(14964 47.31 0 -0.21735 0 3453.2)
(14933 47.302 0 -0.075496 0 3446)
(14901 47.092 0 0.12517 0 3438.8)
(14870 46.616 0 0.39155 0 3431.7)
(14840 45.8 0 0.72584 0 3424.8)
(14810 44.577 0 1.1244 0 3418)
(14781 42.883 0 1.5768 0 3411.5)
(14754 40.67 0 2.0669 0 3405.2)
(14728 37.909 0 2.5738 0 3399.4)
(14704 34.595 0 3.0752 0 3394)
(14683 30.742 0 3.5498 0 3389.2)
(14664 26.386 0 3.9807 0 3384.9)
(14648 21.58 0 4.3569 0 3381.3)
(14635 16.38 0 4.6749 0 3378.4)
(14626 10.848 0 4.9373 0 3376.4)
(14620 5.0381 0 5.1518 0 3375.1)
(14619 -1.0008 0 5.3284 0 3374.7)
(14621 -7.2307 0 5.4767 0 3375.3)
(14627 -13.621 0 5.6031 0 3376.7)
(14637 -20.143 0 5.7091 0 3379.1)
(14652 -26.768 0 5.7903 0 3382.5)
(14671 -33.46 0 5.8369 0 3386.9)
(14694 -40.169 0 5.8355 0 3392.3)
(14722 -46.835 0 5.7722 0 3398.6)
(14753 -53.383 0 5.6357 0 3405.9)
(14789 -59.731 0 5.4201 0 3414.1)
(14829 -65.793 0 5.1262 0 3423.3)
(14873 -71.49 0 4.761 0 3433.3)
(14920 -76.75 0 4.3362 0 3444.1)
(14971 -81.516 0 3.8659 0 3455.7)
(15024 -85.745 0 3.3646 0 3467.9)
(15080 -89.411 0 2.8466 0 3480.7)
(15138 -92.501 0 2.3257 0 3494)
(15199 -95.018 0 1.8162 0 3507.8)
(15260 -96.98 0 1.3325 0 3521.9)
(15323 -98.42 0 0.88865 0 3536.3)
(15387 -99.383 0 0.49573 0 3550.9)
(15451 -99.923 0 0.15903 0 3565.7)
(15516 -100.09 0 -0.1243 0 3580.5)
(15580 -99.944 0 -0.36578 0 3595.3)
(15645 -99.505 0 -0.58438 0 3610.2)
(15709 -98.787 0 -0.80354 0 3624.9)
(15772 -97.776 0 -1.0483 0 3639.5)
(15835 -96.433 0 -1.3426 0 3653.9)
(15896 -94.694 0 -1.708 0 3668)
(15957 -92.479 0 -2.1615 0 3681.8)
(16015 -89.692 0 -2.7143 0 3695.3)
(16072 -86.232 0 -3.3692 0 3708.2)
(16126 -82 0 -4.118 0 3720.5)
(16177 -76.915 0 -4.9394 0 3732.1)
(16225 -70.928 0 -5.7969 0 3742.9)
(16268 -64.038 0 -6.6374 0 3752.7)
(16307 -56.301 0 -7.396 0 3761.5)
(16341 -47.842 0 -8.0056 0 3769.2)
(16369 -38.849 0 -8.4047 0 3775.6)
(16392 -29.567 0 -8.5463 0 3780.8)
(16409 -20.272 0 -8.4088 0 3784.7)
(16420 -11.247 0 -8.0007 0 3787.4)
(16426 -2.7498 0 -7.3645 0 3788.8)
(16426 5.0231 0 -6.5734 0 3789.1)
(16422 11.955 0 -5.7187 0 3788.3)
(16413 18.024 0 -4.8931 0 3786.5)
(16401 23.297 0 -4.1765 0 3783.8)
(16385 27.908 0 -3.626 0 3780.3)
(16366 32.039 0 -3.2712 0 3776)
(16345 35.888 0 -3.1137 0 3771.1)
(16320 39.645 0 -3.1318 0 3765.5)
(16293 43.469 0 -3.287 0 3759.3)
(16264 47.479 0 -3.532 0 3752.4)
(16231 51.741 0 -3.8169 0 3744.8)
(16196 56.275 0 -4.0936 0 3736.6)
(16157 61.05 0 -4.3194 0 3727.6)
(16116 65.998 0 -4.459 0 3718)
(16071 71.014 0 -4.4851 0 3707.6)
(16022 75.972 0 -4.3797 0 3696.4)
(15971 80.731 0 -4.1344 0 3684.6)
(15916 85.147 0 -3.7519 0 3672.1)
(15859 89.085 0 -3.2467 0 3658.9)
(15799 92.431 0 -2.646 0 3645.3)
(15737 95.106 0 -1.9887 0 3631.1)
(15673 97.075 0 -1.3231 0 3616.6)
(15608 98.352 0 -0.70142 0 3601.8)
(15543 99.004 0 -0.17253 0 3586.7)
(15477 99.139 0 0.22671 0 3571.6)
(15410 98.89 0 0.48002 0 3556.3)
(15344 98.393 0 0.59821 0 3541.1)
(15278 97.756 0 0.62125 0 3525.8)
(15212 97.036 0 0.61492 0 3510.6)
(15147 96.212 0 0.6622 0 3495.5)
(15082 95.178 0 0.85042 0 3480.6)
(15018 93.747 0 1.2569 0 3465.9)
(14955 91.662 0 1.9361 0 3451.6)
(14894 88.63 0 2.9126 0 3437.7)
(14835 84.345 0 4.1802 0 3424.4)
(14779 78.526 0 5.7058 0 3411.9)
(14728 70.934 0 7.4356 0 3400.5)
(14682 61.401 0 9.2995 0 3390.3)
(14643 49.838 0 11.219 0 3381.7)
(14611 36.247 0 13.108 0 3374.8)
(14589 20.726 0 14.869 0 3370)
(14576 3.4855 0 16.395 0 3367.5)
(14574 -15.146 0 17.57 0 3367.4)
(14584 -34.717 0 18.279 0 3369.8)
(14606 -54.657 0 18.414 0 3374.9)
(14640 -74.294 0 17.893 0 3382.6)
(14685 -92.887 0 16.661 0 3392.7)
(14741 -109.66 0 14.701 0 3405.1)
(14806 -123.82 0 12.034 0 3419.4)
(14877 -134.64 0 8.7131 0 3435.2)
(14954 -141.45 0 4.8188 0 3452)
(15033 -143.65 0 0.44351 0 3469.2)
(15111 -140.76 0 -4.3181 0 3486.1)
(15184 -132.39 0 -9.3798 0 3501.9)
(15250 -118.24 0 -14.673 0 3515.8)
(15304 -98.042 0 -20.151 0 3527.1)
(15343 -71.602 0 -25.796 0 3534.7)
(15362 -38.713 0 -31.622 0 3537.9)
(15358 0.85194 0 -37.675 0 3535.5)
(15326 47.373 0 -44.036 0 3526.7)
(15263 101.21 0 -50.813 0 3510.4)
(15162 162.84 0 -58.118 0 3485.5)
(15020 232.82 0 -66.022 0 3450.9)
(14831 311.87 0 -74.492 0 3405.3)
(14590 400.85 0 -83.469 0 3347.6)
(14290 500.97 0 -93.457 0 3276.1)
(13933 614.5 0 -105.01 0 3191.1)
(13510 742.17 0 -116.87 0 3090.8)
(13018 881.76 0 -125.59 0 2975.2)
(12435 1025.2 0 -127.8 0 2840)
(11755 1162.9 0 -124.29 0 2684.1)
(10961 1287.7 0 -117.37 0 2502.3)
(10067 1402.5 0 -109.17 0 2297.9)
(9076.9 1512.4 0 -96.142 0 2072.5)
(8044.8 1620.1 0 -68.459 0 1840.7)
(6932.2 1691.5 0 -17.849 0 1595.6)
(5825.8 1712 0 54.657 0 1357)
(4686.2 1636.5 0 144.69 0 1114.8)
(3496.5 1414.3 0 226.9 0 859.24)
(2191.3 972.79 0 239.22 0 560.89)
(887.1 384.01 0 130.06 0 234.73)
(238.3 94.609 0 36.107 0 63.325)
(59.302 21.753 0 8.0113 0 15.534)
(14.912 5.2727 0 1.7662 0 3.8489)
(4.3439 1.4486 0 0.43957 0 1.1039)
(1.6097 0.5003 0 0.14545 0 0.40504)
(0.74322 0.20938 0 0.054937 0 0.18419)
(0.42817 0.10878 0 0.02456 0 0.10448)
(0.29399 0.06789 0 0.011473 0 0.070492)
(0.22328 0.044782 0 0.011418 0 0.054161)
(0.18518 0.03086 0 0.016193 0 0.046471)
(0.16389 0.020114 0 0.016872 0 0.041713)
(0.15751 0.007156 0 0.016466 0 0.040148)
(0.17218 -0.012856 0 0.01907 0 0.044135)
(0.22463 -0.049168 0 0.026512 0 0.057957)
(0.28725 -0.076201 0 0.012096 0 0.069079)
(0.31902 -0.051027 0 -0.045558 0 0.063106)
(0.26212 0.025558 0 -0.10179 0 0.036999)
(0.17905 0.078976 0 -0.089448 0 0.020677)
(0.13718 0.075156 0 -0.027946 0 0.025209)
(0.1364 0.058617 0 0.011884 0 0.034219)
(0.12485 0.042418 0 0.025028 0 0.034586)
(0.12138 0.033695 0 0.023144 0 0.033353)
(0.11663 0.026687 0 0.016131 0 0.030637)
(0.12007 0.024018 0 0.0091172 0 0.029813)
(0.10439 0.019515 0 0.0030814 0 0.024801)
(0.091554 0.016182 0 0.0012404 0 0.021414)
(0.081154 0.013962 0 0.00094766 0 0.018946)
(0.072644 0.012386 0 0.00098364 0 0.016991)
(0.065276 0.011116 0 0.00096708 0 0.015287)
(0.058888 0.010081 0 0.00083582 0 0.013782)
(0.053114 0.0092454 0 0.00063926 0 0.012405)
(0.047826 0.0085827 0 0.0004704 0 0.011145)
(0.042742 0.0080258 0 0.00038043 0 0.0099513)
(0.038008 0.007557 0 0.00034851 0 0.0088515)
(0.033615 0.0071371 0 0.00033959 0 0.0078357)
(0.029493 0.0067349 0 0.00033869 0 0.0068841)
(0.025626 0.0063394 0 0.00034276 0 0.0059928)
(0.022062 0.0059619 0 0.00035378 0 0.0051728)
(0.018715 0.005567 0 0.00038534 0 0.0044078)
(0.015628 0.0051344 0 0.0004549 0 0.0037114)
(0.012778 0.004612 0 0.00057831 0 0.0030822)
(0.010241 0.00397 0 0.00076238 0 0.0025393)
(0.0080207 0.0031661 0 0.00097972 0 0.002077)
(0.0061834 0.0022479 0 0.0011483 0 0.0016919)
(0.0047041 0.0013287 0 0.0011277 0 0.0013458)
(0.0035578 0.00060244 0 0.0008125 0 0.0010085)
(0.0027537 0.00023922 0 0.00018644 0 0.00067849)
(0.0017431 0.00037042 0 -0.00074035 0 0.00023141)
(0.00063099 0.00074137 0 -0.0013094 0 -0.00015655)
(0.00030076 0.00067861 0 -0.00059936 0 -6.8907e-05)
(0.00056422 0.00052924 0 1.609e-05 0 0.00013392)
(0.00068894 0.00039202 0 0.00026598 0 0.00022037)
(0.00076291 0.00033978 0 0.00028947 0 0.00024286)
(0.00075806 0.00027954 0 0.00021243 0 0.00022396)
(0.00078716 0.00025865 0 0.00013749 0 0.00021338)
(0.0006449 0.00019711 0 5.7389e-05 0 0.00016207)
(0.00052788 0.00015062 0 2.542e-05 0 0.00012769)
(0.00043888 0.00012215 0 1.5105e-05 0 0.00010477)
(0.00036746 0.00010427 0 1.1158e-05 0 8.7374e-05)
(0.00030676 9.1862e-05 0 8.9208e-06 0 7.285e-05)
(0.00025326 8.229e-05 0 7.4166e-06 0 6.0155e-05)
(0.00020566 7.4456e-05 0 6.4197e-06 0 4.8942e-05)
(0.00016298 6.7799e-05 0 5.7481e-06 0 3.8937e-05)
(0.0001244 6.1971e-05 0 5.2682e-06 0 2.9923e-05)
(8.9328e-05 5.6751e-05 0 4.8997e-06 0 2.1745e-05)
(5.7331e-05 5.1994e-05 0 4.5968e-06 0 1.4291e-05)
(2.8084e-05 4.7612e-05 0 4.3338e-06 0 7.4811e-06)
(1.3347e-06 4.3547e-05 0 4.0949e-06 0 1.253e-06)
(-2.3126e-05 3.9764e-05 0 3.8711e-06 0 -4.4435e-06)
(-4.5476e-05 3.6237e-05 0 3.6576e-06 0 -9.6504e-06)
(-6.5869e-05 3.2949e-05 0 3.4531e-06 0 -1.4404e-05)
(-8.4446e-05 2.9882e-05 0 3.2577e-06 0 -1.8736e-05)
(-0.00010133 2.7023e-05 0 3.0726e-06 0 -2.2675e-05)
(-0.00011664 2.4357e-05 0 2.899e-06 0 -2.6249e-05)
(-0.00013049 2.187e-05 0 2.7378e-06 0 -2.948e-05)
(-0.00014295 1.9547e-05 0 2.589e-06 0 -3.2392e-05)
(-0.00015414 1.7375e-05 0 2.4524e-06 0 -3.5005e-05)
(-0.00016412 1.534e-05 0 2.3271e-06 0 -3.7336e-05)
(-0.00017297 1.3431e-05 0 2.2122e-06 0 -3.9405e-05)
(-0.00018075 1.1636e-05 0 2.1065e-06 0 -4.1226e-05)
(-0.00018753 9.9458e-06 0 2.0092e-06 0 -4.2813e-05)
(-0.00019337 8.3518e-06 0 1.9191e-06 0 -4.4181e-05)
(-0.00019831 6.846e-06 0 1.8355e-06 0 -4.5341e-05)
(-0.00020241 5.4212e-06 0 1.7577e-06 0 -4.6304e-05)
(-0.0002057 4.0712e-06 0 1.685e-06 0 -4.7081e-05)
(-0.00020823 2.7903e-06 0 1.6169e-06 0 -4.7681e-05)
(-0.00021004 1.5734e-06 0 1.5528e-06 0 -4.8113e-05)
(-0.00021116 4.1589e-07 0 1.4921e-06 0 -4.8385e-05)
(-0.00021162 -6.8617e-07 0 1.4344e-06 0 -4.8505e-05)
(-0.00021146 -1.7363e-06 0 1.3793e-06 0 -4.848e-05)
(-0.0002107 -2.7375e-06 0 1.3263e-06 0 -4.8317e-05)
(-0.00020937 -3.6924e-06 0 1.2749e-06 0 -4.8023e-05)
(-0.0002075 -4.6033e-06 0 1.2249e-06 0 -4.7603e-05)
(-0.00020512 -5.4717e-06 0 1.1758e-06 0 -4.7063e-05)
(-0.00020224 -6.2992e-06 0 1.1273e-06 0 -4.641e-05)
(-0.00019889 -7.0869e-06 0 1.0791e-06 0 -4.5648e-05)
(-0.0001951 -7.8354e-06 0 1.0308e-06 0 -4.4784e-05)
(-0.00019088 -8.5451e-06 0 9.8222e-07 0 -4.3823e-05)
(-0.00018627 -9.2162e-06 0 9.3306e-07 0 -4.2769e-05)
(-0.00018127 -9.8484e-06 0 8.83e-07 0 -4.1629e-05)
(-0.00017593 -1.0441e-05 0 8.3184e-07 0 -4.0408e-05)
(-0.00017026 -1.0994e-05 0 7.7925e-07 0 -3.9111e-05)