/*--------------------------------*- C++ -*----------------------------------*\
| =========                 |                                                 |
| \\      /  F ield         | OpenFOAM: The Open Source CFD Toolbox           |
|  \\    /   O peration     | Version:  5.x                                   |
|   \\  /    A nd           | Web:      www.OpenFOAM.org                      |
|    \\/     M anipulation  |                                                 |
\*---------------------------------------------------------------------------*/
FoamFile
{
    version     2.0;
    format      ascii;
    class       volVectorField;
    location    "5";
    object      D;
}
// * * * * * * * * * * * * * * * * * * * * * * * * * * * * * * * * * * * * * //

dimensions      [0 1 0 0 0 0 0];

internalField   nonuniform List<vector> 
80000
(
(4.3219e-07 3.5538e-07 0)
(1.0878e-06 8.5965e-07 0)
(1.6631e-06 1.2446e-06 0)
(2.2016e-06 1.5829e-06 0)
(2.7209e-06 1.8994e-06 0)
(3.228e-06 2.2021e-06 0)
(3.7246e-06 2.4939e-06 0)
(4.2114e-06 2.7767e-06 0)
(4.6897e-06 3.0523e-06 0)
(5.1607e-06 3.3221e-06 0)
(5.6254e-06 3.5873e-06 0)
(6.0846e-06 3.8488e-06 0)
(6.5389e-06 4.1076e-06 0)
(6.9887e-06 4.3643e-06 0)
(7.4347e-06 4.6193e-06 0)
(7.877e-06 4.8733e-06 0)
(8.3161e-06 5.1267e-06 0)
(8.7522e-06 5.3798e-06 0)
(9.1855e-06 5.6331e-06 0)
(9.6162e-06 5.8867e-06 0)
(1.0045e-05 6.1409e-06 0)
(1.0471e-05 6.396e-06 0)
(1.0895e-05 6.6522e-06 0)
(1.1317e-05 6.9098e-06 0)
(1.1737e-05 7.1687e-06 0)
(1.2155e-05 7.4293e-06 0)
(1.2572e-05 7.6916e-06 0)
(1.2987e-05 7.9559e-06 0)
(1.34e-05 8.2221e-06 0)
(1.3812e-05 8.4905e-06 0)
(1.4223e-05 8.7611e-06 0)
(1.4632e-05 9.034e-06 0)
(1.504e-05 9.3093e-06 0)
(1.5446e-05 9.5871e-06 0)
(1.5851e-05 9.8675e-06 0)
(1.6255e-05 1.015e-05 0)
(1.6658e-05 1.0436e-05 0)
(1.706e-05 1.0725e-05 0)
(1.746e-05 1.1016e-05 0)
(1.786e-05 1.131e-05 0)
(1.8258e-05 1.1607e-05 0)
(1.8655e-05 1.1907e-05 0)
(1.9051e-05 1.221e-05 0)
(1.9446e-05 1.2516e-05 0)
(1.984e-05 1.2825e-05 0)
(2.0233e-05 1.3137e-05 0)
(2.0625e-05 1.3452e-05 0)
(2.1017e-05 1.377e-05 0)
(2.1407e-05 1.4092e-05 0)
(2.1796e-05 1.4417e-05 0)
(2.2184e-05 1.4745e-05 0)
(2.2571e-05 1.5076e-05 0)
(2.2957e-05 1.541e-05 0)
(2.3343e-05 1.5748e-05 0)
(2.3727e-05 1.6089e-05 0)
(2.4111e-05 1.6434e-05 0)
(2.4493e-05 1.6781e-05 0)
(2.4875e-05 1.7132e-05 0)
(2.5256e-05 1.7487e-05 0)
(2.5635e-05 1.7845e-05 0)
(2.6014e-05 1.8206e-05 0)
(2.6392e-05 1.857e-05 0)
(2.6769e-05 1.8938e-05 0)
(2.7146e-05 1.931e-05 0)
(2.7521e-05 1.9685e-05 0)
(2.7895e-05 2.0063e-05 0)
(2.8269e-05 2.0444e-05 0)
(2.8641e-05 2.0829e-05 0)
(2.9013e-05 2.1218e-05 0)
(2.9384e-05 2.161e-05 0)
(2.9754e-05 2.2005e-05 0)
(3.0123e-05 2.2404e-05 0)
(3.0491e-05 2.2806e-05 0)
(3.0858e-05 2.3212e-05 0)
(3.1225e-05 2.3621e-05 0)
(3.159e-05 2.4034e-05 0)
(3.1955e-05 2.445e-05 0)
(3.2319e-05 2.487e-05 0)
(3.2681e-05 2.5293e-05 0)
(3.3043e-05 2.5719e-05 0)
(3.3404e-05 2.6149e-05 0)
(3.3765e-05 2.6582e-05 0)
(3.4124e-05 2.7019e-05 0)
(3.4482e-05 2.7459e-05 0)
(3.484e-05 2.7903e-05 0)
(3.5196e-05 2.835e-05 0)
(3.5552e-05 2.8801e-05 0)
(3.5907e-05 2.9255e-05 0)
(3.6261e-05 2.9712e-05 0)
(3.6614e-05 3.0173e-05 0)
(3.6966e-05 3.0637e-05 0)
(3.7317e-05 3.1105e-05 0)
(3.7668e-05 3.1576e-05 0)
(3.8017e-05 3.205e-05 0)
(3.8366e-05 3.2528e-05 0)
(3.8714e-05 3.3009e-05 0)
(3.9062e-05 3.3493e-05 0)
(3.9409e-05 3.3981e-05 0)
(3.9756e-05 3.4472e-05 0)
(4.0101e-05 3.4967e-05 0)
(4.0447e-05 3.5465e-05 0)
(4.0791e-05 3.5967e-05 0)
(4.1135e-05 3.6472e-05 0)
(4.1478e-05 3.698e-05 0)
(4.182e-05 3.7492e-05 0)
(4.216e-05 3.8008e-05 0)
(4.2499e-05 3.8527e-05 0)
(4.2837e-05 3.9049e-05 0)
(4.3174e-05 3.9575e-05 0)
(4.351e-05 4.0104e-05 0)
(4.3845e-05 4.0636e-05 0)
(4.4178e-05 4.1172e-05 0)
(4.451e-05 4.1711e-05 0)
(4.4841e-05 4.2254e-05 0)
(4.5171e-05 4.28e-05 0)
(4.55e-05 4.3349e-05 0)
(4.5828e-05 4.3901e-05 0)
(4.6155e-05 4.4456e-05 0)
(4.6481e-05 4.5015e-05 0)
(4.6805e-05 4.5577e-05 0)
(4.7129e-05 4.6143e-05 0)
(4.7451e-05 4.6711e-05 0)
(4.7772e-05 4.7283e-05 0)
(4.8092e-05 4.7858e-05 0)
(4.8412e-05 4.8436e-05 0)
(4.873e-05 4.9018e-05 0)
(4.9046e-05 4.9602e-05 0)
(4.9362e-05 5.019e-05 0)
(4.9677e-05 5.0781e-05 0)
(4.9991e-05 5.1375e-05 0)
(5.0303e-05 5.1972e-05 0)
(5.0615e-05 5.2572e-05 0)
(5.0925e-05 5.3175e-05 0)
(5.1235e-05 5.3782e-05 0)
(5.1543e-05 5.4391e-05 0)
(5.185e-05 5.5004e-05 0)
(5.2156e-05 5.562e-05 0)
(5.2461e-05 5.6239e-05 0)
(5.2765e-05 5.686e-05 0)
(5.3068e-05 5.7485e-05 0)
(5.3369e-05 5.8113e-05 0)
(5.367e-05 5.8744e-05 0)
(5.397e-05 5.9378e-05 0)
(5.4268e-05 6.0015e-05 0)
(5.4565e-05 6.0655e-05 0)
(5.4862e-05 6.1298e-05 0)
(5.5157e-05 6.1944e-05 0)
(5.5451e-05 6.2592e-05 0)
(5.5744e-05 6.3244e-05 0)
(5.6036e-05 6.3899e-05 0)
(5.6327e-05 6.4557e-05 0)
(5.6616e-05 6.5217e-05 0)
(5.6905e-05 6.5881e-05 0)
(5.7193e-05 6.6547e-05 0)
(5.7479e-05 6.7216e-05 0)
(5.7764e-05 6.7888e-05 0)
(5.8049e-05 6.8563e-05 0)
(5.8332e-05 6.9241e-05 0)
(5.8614e-05 6.9922e-05 0)
(5.8895e-05 7.0605e-05 0)
(5.9175e-05 7.1291e-05 0)
(5.9453e-05 7.1981e-05 0)
(5.9731e-05 7.2673e-05 0)
(6.0007e-05 7.3367e-05 0)
(6.0283e-05 7.4065e-05 0)
(6.0557e-05 7.4765e-05 0)
(6.083e-05 7.5468e-05 0)
(6.1102e-05 7.6174e-05 0)
(6.1373e-05 7.6882e-05 0)
(6.1643e-05 7.7593e-05 0)
(6.1912e-05 7.8307e-05 0)
(6.218e-05 7.9024e-05 0)
(6.2446e-05 7.9743e-05 0)
(6.2712e-05 8.0465e-05 0)
(6.2976e-05 8.119e-05 0)
(6.3239e-05 8.1917e-05 0)
(6.3501e-05 8.2647e-05 0)
(6.3762e-05 8.338e-05 0)
(6.4022e-05 8.4115e-05 0)
(6.4281e-05 8.4853e-05 0)
(6.4538e-05 8.5593e-05 0)
(6.4795e-05 8.6336e-05 0)
(6.505e-05 8.7082e-05 0)
(6.5304e-05 8.783e-05 0)
(6.5557e-05 8.8581e-05 0)
(6.5808e-05 8.9334e-05 0)
(6.6059e-05 9.009e-05 0)
(6.6309e-05 9.0848e-05 0)
(6.6557e-05 9.1609e-05 0)
(6.6804e-05 9.2372e-05 0)
(6.7051e-05 9.3138e-05 0)
(6.7296e-05 9.3906e-05 0)
(6.754e-05 9.4677e-05 0)
(6.7783e-05 9.545e-05 0)
(6.8024e-05 9.6225e-05 0)
(6.8265e-05 9.7003e-05 0)
(6.8505e-05 9.7784e-05 0)
(6.8743e-05 9.8567e-05 0)
(6.898e-05 9.9352e-05 0)
(6.9217e-05 0.00010014 0)
(6.9452e-05 0.00010093 0)
(6.9686e-05 0.00010172 0)
(6.9919e-05 0.00010252 0)
(7.015e-05 0.00010331 0)
(7.0381e-05 0.00010411 0)
(7.061e-05 0.00010491 0)
(7.0839e-05 0.00010572 0)
(7.1066e-05 0.00010653 0)
(7.1292e-05 0.00010733 0)
(7.1517e-05 0.00010814 0)
(7.1741e-05 0.00010896 0)
(7.1963e-05 0.00010977 0)
(7.2185e-05 0.00011059 0)
(7.2405e-05 0.00011141 0)
(7.2625e-05 0.00011223 0)
(7.2843e-05 0.00011306 0)
(7.306e-05 0.00011388 0)
(7.3275e-05 0.00011471 0)
(7.349e-05 0.00011554 0)
(7.3704e-05 0.00011638 0)
(7.3916e-05 0.00011721 0)
(7.4127e-05 0.00011805 0)
(7.4337e-05 0.00011889 0)
(7.4546e-05 0.00011973 0)
(7.4754e-05 0.00012057 0)
(7.496e-05 0.00012142 0)
(7.5165e-05 0.00012227 0)
(7.5369e-05 0.00012312 0)
(7.5572e-05 0.00012397 0)
(7.5774e-05 0.00012482 0)
(7.5975e-05 0.00012568 0)
(7.6174e-05 0.00012654 0)
(7.6373e-05 0.0001274 0)
(7.657e-05 0.00012826 0)
(7.6766e-05 0.00012913 0)
(7.6961e-05 0.00012999 0)
(7.7155e-05 0.00013086 0)
(7.7348e-05 0.00013173 0)
(7.7539e-05 0.0001326 0)
(7.7729e-05 0.00013348 0)
(7.7919e-05 0.00013435 0)
(7.8107e-05 0.00013523 0)
(7.8294e-05 0.00013611 0)
(7.8479e-05 0.00013699 0)
(7.8664e-05 0.00013787 0)
(7.8847e-05 0.00013876 0)
(7.9029e-05 0.00013965 0)
(7.921e-05 0.00014054 0)
(7.939e-05 0.00014143 0)
(7.9569e-05 0.00014232 0)
(7.9746e-05 0.00014321 0)
(7.9923e-05 0.00014411 0)
(8.0098e-05 0.00014501 0)
(8.0272e-05 0.00014591 0)
(8.0444e-05 0.00014681 0)
(8.0616e-05 0.00014771 0)
(8.0786e-05 0.00014862 0)
(8.0955e-05 0.00014952 0)
(8.1123e-05 0.00015043 0)
(8.129e-05 0.00015134 0)
(8.1455e-05 0.00015226 0)
(8.162e-05 0.00015317 0)
(8.1783e-05 0.00015408 0)
(8.1945e-05 0.000155 0)
(8.2105e-05 0.00015592 0)
(8.2265e-05 0.00015684 0)
(8.2423e-05 0.00015776 0)
(8.258e-05 0.00015869 0)
(8.2736e-05 0.00015961 0)
(8.289e-05 0.00016054 0)
(8.3043e-05 0.00016147 0)
(8.3195e-05 0.0001624 0)
(8.3346e-05 0.00016333 0)
(8.3495e-05 0.00016426 0)
(8.3644e-05 0.00016519 0)
(8.3791e-05 0.00016613 0)
(8.3936e-05 0.00016707 0)
(8.4081e-05 0.00016801 0)
(8.4224e-05 0.00016895 0)
(8.4366e-05 0.00016989 0)
(8.4506e-05 0.00017083 0)
(8.4645e-05 0.00017178 0)
(8.4783e-05 0.00017272 0)
(8.492e-05 0.00017367 0)
(8.5056e-05 0.00017462 0)
(8.519e-05 0.00017557 0)
(8.5322e-05 0.00017652 0)
(8.5454e-05 0.00017747 0)
(8.5584e-05 0.00017843 0)
(8.5713e-05 0.00017938 0)
(8.584e-05 0.00018034 0)
(8.5966e-05 0.0001813 0)
(8.6091e-05 0.00018226 0)
(8.6214e-05 0.00018322 0)
(8.6336e-05 0.00018418 0)
(8.6457e-05 0.00018514 0)
(8.6576e-05 0.00018611 0)
(8.6694e-05 0.00018707 0)
(8.681e-05 0.00018804 0)
(8.6925e-05 0.00018901 0)
(8.7039e-05 0.00018998 0)
(8.7151e-05 0.00019095 0)
(8.7262e-05 0.00019192 0)
(8.7371e-05 0.00019289 0)
(8.7479e-05 0.00019386 0)
(8.7586e-05 0.00019484 0)
(8.7691e-05 0.00019581 0)
(8.7794e-05 0.00019679 0)
(8.7897e-05 0.00019777 0)
(8.7997e-05 0.00019875 0)
(8.8096e-05 0.00019972 0)
(8.8194e-05 0.0002007 0)
(8.829e-05 0.00020168 0)
(8.8385e-05 0.00020267 0)
(8.8478e-05 0.00020365 0)
(8.8569e-05 0.00020463 0)
(8.8659e-05 0.00020562 0)
(8.8748e-05 0.0002066 0)
(8.8835e-05 0.00020759 0)
(8.892e-05 0.00020857 0)
(8.9004e-05 0.00020956 0)
(8.9086e-05 0.00021055 0)
(8.9167e-05 0.00021153 0)
(8.9246e-05 0.00021252 0)
(8.9323e-05 0.00021351 0)
(8.9399e-05 0.0002145 0)
(8.9474e-05 0.00021549 0)
(8.9546e-05 0.00021648 0)
(8.9617e-05 0.00021747 0)
(8.9686e-05 0.00021846 0)
(8.9754e-05 0.00021946 0)
(8.982e-05 0.00022045 0)
(8.9885e-05 0.00022144 0)
(8.9947e-05 0.00022243 0)
(9.0008e-05 0.00022343 0)
(9.0068e-05 0.00022442 0)
(9.0125e-05 0.00022541 0)
(9.0182e-05 0.0002264 0)
(9.0236e-05 0.0002274 0)
(9.0289e-05 0.00022839 0)
(9.034e-05 0.00022938 0)
(9.0389e-05 0.00023038 0)
(9.0437e-05 0.00023137 0)
(9.0483e-05 0.00023236 0)
(9.0527e-05 0.00023335 0)
(9.057e-05 0.00023435 0)
(9.0611e-05 0.00023534 0)
(9.065e-05 0.00023633 0)
(9.0688e-05 0.00023732 0)
(9.0724e-05 0.00023831 0)
(9.0758e-05 0.0002393 0)
(9.0791e-05 0.00024029 0)
(9.0822e-05 0.00024128 0)
(9.0852e-05 0.00024227 0)
(9.088e-05 0.00024326 0)
(9.0907e-05 0.00024424 0)
(9.0932e-05 0.00024523 0)
(9.0955e-05 0.00024621 0)
(9.0977e-05 0.0002472 0)
(9.0998e-05 0.00024818 0)
(9.1017e-05 0.00024916 0)
(9.1035e-05 0.00025015 0)
(9.1051e-05 0.00025113 0)
(9.1066e-05 0.00025211 0)
(9.108e-05 0.00025308 0)
(9.1092e-05 0.00025406 0)
(9.1103e-05 0.00025504 0)
(9.1113e-05 0.00025601 0)
(9.1122e-05 0.00025699 0)
(9.113e-05 0.00025796 0)
(9.1136e-05 0.00025893 0)
(9.1142e-05 0.0002599 0)
(9.1147e-05 0.00026087 0)
(9.1151e-05 0.00026183 0)
(9.1154e-05 0.0002628 0)
(9.1156e-05 0.00026376 0)
(9.1157e-05 0.00026472 0)
(9.1158e-05 0.00026569 0)
(9.1158e-05 0.00026665 0)
(9.1158e-05 0.0002676 0)
(9.1157e-05 0.00026856 0)
(9.1156e-05 0.00026952 0)
(9.1154e-05 0.00027047 0)
(9.1152e-05 0.00027142 0)
(9.115e-05 0.00027238 0)
(9.1148e-05 0.00027333 0)
(9.1146e-05 0.00027428 0)
(9.1143e-05 0.00027522 0)
(9.1141e-05 0.00027617 0)
(9.1139e-05 0.00027712 0)
(9.1137e-05 0.00027806 0)
(9.1135e-05 0.00027901 0)
(9.1133e-05 0.00027995 0)
(9.1132e-05 0.0002809 0)
(9.1131e-05 0.00028184 0)
(9.113e-05 0.00028279 0)
(9.113e-05 0.00028373 0)
(9.1129e-05 0.00028467 0)
(9.1129e-05 0.00028562 0)
(9.1129e-05 0.00028656 0)
(2.5624e-07 2.3553e-07 0)
(8.3603e-07 6.8174e-07 0)
(1.402e-06 1.0734e-06 0)
(1.9421e-06 1.4224e-06 0)
(2.4638e-06 1.7455e-06 0)
(2.9732e-06 2.0521e-06 0)
(3.4721e-06 2.3468e-06 0)
(3.9611e-06 2.6322e-06 0)
(4.4414e-06 2.91e-06 0)
(4.9141e-06 3.1818e-06 0)
(5.3802e-06 3.4488e-06 0)
(5.8404e-06 3.7119e-06 0)
(6.2953e-06 3.9721e-06 0)
(6.7455e-06 4.23e-06 0)
(7.1915e-06 4.4862e-06 0)
(7.6336e-06 4.7413e-06 0)
(8.0722e-06 4.9956e-06 0)
(8.5076e-06 5.2496e-06 0)
(8.94e-06 5.5037e-06 0)
(9.3697e-06 5.758e-06 0)
(9.7967e-06 6.013e-06 0)
(1.0221e-05 6.2688e-06 0)
(1.0644e-05 6.5256e-06 0)
(1.1064e-05 6.7837e-06 0)
(1.1482e-05 7.0433e-06 0)
(1.1899e-05 7.3044e-06 0)
(1.2313e-05 7.5672e-06 0)
(1.2726e-05 7.832e-06 0)
(1.3137e-05 8.0987e-06 0)
(1.3547e-05 8.3675e-06 0)
(1.3955e-05 8.6385e-06 0)
(1.4362e-05 8.9119e-06 0)
(1.4767e-05 9.1876e-06 0)
(1.5171e-05 9.4658e-06 0)
(1.5573e-05 9.7465e-06 0)
(1.5974e-05 1.003e-05 0)
(1.6374e-05 1.0316e-05 0)
(1.6773e-05 1.0605e-05 0)
(1.7171e-05 1.0896e-05 0)
(1.7567e-05 1.1191e-05 0)
(1.7962e-05 1.1488e-05 0)
(1.8357e-05 1.1788e-05 0)
(1.875e-05 1.2092e-05 0)
(1.9142e-05 1.2398e-05 0)
(1.9533e-05 1.2707e-05 0)
(1.9923e-05 1.3019e-05 0)
(2.0311e-05 1.3335e-05 0)
(2.0699e-05 1.3654e-05 0)
(2.1086e-05 1.3975e-05 0)
(2.1472e-05 1.4301e-05 0)
(2.1857e-05 1.4629e-05 0)
(2.2241e-05 1.496e-05 0)
(2.2624e-05 1.5295e-05 0)
(2.3006e-05 1.5633e-05 0)
(2.3387e-05 1.5974e-05 0)
(2.3767e-05 1.6319e-05 0)
(2.4146e-05 1.6667e-05 0)
(2.4525e-05 1.7018e-05 0)
(2.4902e-05 1.7373e-05 0)
(2.5278e-05 1.7731e-05 0)
(2.5654e-05 1.8093e-05 0)
(2.6028e-05 1.8458e-05 0)
(2.6402e-05 1.8826e-05 0)
(2.6775e-05 1.9198e-05 0)
(2.7147e-05 1.9573e-05 0)
(2.7518e-05 1.9951e-05 0)
(2.7888e-05 2.0333e-05 0)
(2.8257e-05 2.0718e-05 0)
(2.8625e-05 2.1107e-05 0)
(2.8993e-05 2.1499e-05 0)
(2.9359e-05 2.1895e-05 0)
(2.9725e-05 2.2294e-05 0)
(3.009e-05 2.2697e-05 0)
(3.0453e-05 2.3103e-05 0)
(3.0816e-05 2.3512e-05 0)
(3.1178e-05 2.3925e-05 0)
(3.1539e-05 2.4341e-05 0)
(3.19e-05 2.4761e-05 0)
(3.2259e-05 2.5184e-05 0)
(3.2618e-05 2.5611e-05 0)
(3.2975e-05 2.6041e-05 0)
(3.3332e-05 2.6475e-05 0)
(3.3688e-05 2.6912e-05 0)
(3.4043e-05 2.7353e-05 0)
(3.4397e-05 2.7797e-05 0)
(3.475e-05 2.8244e-05 0)
(3.5102e-05 2.8695e-05 0)
(3.5454e-05 2.9149e-05 0)
(3.5804e-05 2.9607e-05 0)
(3.6154e-05 3.0068e-05 0)
(3.6503e-05 3.0532e-05 0)
(3.685e-05 3.1e-05 0)
(3.7198e-05 3.1471e-05 0)
(3.7544e-05 3.1946e-05 0)
(3.789e-05 3.2423e-05 0)
(3.8235e-05 3.2905e-05 0)
(3.8579e-05 3.3389e-05 0)
(3.8923e-05 3.3877e-05 0)
(3.9266e-05 3.4369e-05 0)
(3.9609e-05 3.4864e-05 0)
(3.995e-05 3.5362e-05 0)
(4.0292e-05 3.5864e-05 0)
(4.0632e-05 3.6369e-05 0)
(4.0971e-05 3.6878e-05 0)
(4.1309e-05 3.739e-05 0)
(4.1646e-05 3.7906e-05 0)
(4.1982e-05 3.8426e-05 0)
(4.2316e-05 3.8948e-05 0)
(4.265e-05 3.9474e-05 0)
(4.2982e-05 4.0004e-05 0)
(4.3313e-05 4.0537e-05 0)
(4.3643e-05 4.1073e-05 0)
(4.3972e-05 4.1612e-05 0)
(4.43e-05 4.2155e-05 0)
(4.4627e-05 4.2701e-05 0)
(4.4952e-05 4.3251e-05 0)
(4.5277e-05 4.3803e-05 0)
(4.56e-05 4.4359e-05 0)
(4.5923e-05 4.4918e-05 0)
(4.6244e-05 4.5481e-05 0)
(4.6564e-05 4.6046e-05 0)
(4.6883e-05 4.6615e-05 0)
(4.7202e-05 4.7187e-05 0)
(4.7519e-05 4.7763e-05 0)
(4.7834e-05 4.8341e-05 0)
(4.8149e-05 4.8923e-05 0)
(4.8463e-05 4.9508e-05 0)
(4.8776e-05 5.0096e-05 0)
(4.9087e-05 5.0687e-05 0)
(4.9398e-05 5.1281e-05 0)
(4.9707e-05 5.1879e-05 0)
(5.0016e-05 5.2479e-05 0)
(5.0323e-05 5.3083e-05 0)
(5.0629e-05 5.369e-05 0)
(5.0934e-05 5.43e-05 0)
(5.1238e-05 5.4913e-05 0)
(5.1541e-05 5.5529e-05 0)
(5.1843e-05 5.6148e-05 0)
(5.2144e-05 5.677e-05 0)
(5.2444e-05 5.7395e-05 0)
(5.2743e-05 5.8023e-05 0)
(5.304e-05 5.8655e-05 0)
(5.3337e-05 5.9289e-05 0)
(5.3632e-05 5.9926e-05 0)
(5.3927e-05 6.0566e-05 0)
(5.422e-05 6.1209e-05 0)
(5.4512e-05 6.1856e-05 0)
(5.4803e-05 6.2505e-05 0)
(5.5093e-05 6.3157e-05 0)
(5.5382e-05 6.3812e-05 0)
(5.567e-05 6.447e-05 0)
(5.5957e-05 6.5131e-05 0)
(5.6243e-05 6.5795e-05 0)
(5.6527e-05 6.6461e-05 0)
(5.6811e-05 6.7131e-05 0)
(5.7094e-05 6.7803e-05 0)
(5.7375e-05 6.8479e-05 0)
(5.7655e-05 6.9157e-05 0)
(5.7934e-05 6.9838e-05 0)
(5.8212e-05 7.0521e-05 0)
(5.8489e-05 7.1208e-05 0)
(5.8765e-05 7.1898e-05 0)
(5.904e-05 7.259e-05 0)
(5.9314e-05 7.3285e-05 0)
(5.9587e-05 7.3983e-05 0)
(5.9858e-05 7.4683e-05 0)
(6.0129e-05 7.5387e-05 0)
(6.0398e-05 7.6093e-05 0)
(6.0666e-05 7.6801e-05 0)
(6.0933e-05 7.7513e-05 0)
(6.1199e-05 7.8227e-05 0)
(6.1464e-05 7.8944e-05 0)
(6.1728e-05 7.9664e-05 0)
(6.1991e-05 8.0386e-05 0)
(6.2253e-05 8.1111e-05 0)
(6.2513e-05 8.1839e-05 0)
(6.2772e-05 8.2569e-05 0)
(6.3031e-05 8.3302e-05 0)
(6.3288e-05 8.4037e-05 0)
(6.3544e-05 8.4776e-05 0)
(6.3799e-05 8.5516e-05 0)
(6.4053e-05 8.626e-05 0)
(6.4305e-05 8.7006e-05 0)
(6.4557e-05 8.7754e-05 0)
(6.4807e-05 8.8505e-05 0)
(6.5056e-05 8.9259e-05 0)
(6.5305e-05 9.0015e-05 0)
(6.5552e-05 9.0774e-05 0)
(6.5798e-05 9.1535e-05 0)
(6.6042e-05 9.2298e-05 0)
(6.6286e-05 9.3064e-05 0)
(6.6529e-05 9.3833e-05 0)
(6.677e-05 9.4604e-05 0)
(6.7011e-05 9.5377e-05 0)
(6.725e-05 9.6153e-05 0)
(6.7489e-05 9.6932e-05 0)
(6.7726e-05 9.7713e-05 0)
(6.7962e-05 9.8496e-05 0)
(6.8197e-05 9.9281e-05 0)
(6.8431e-05 0.00010007 0)
(6.8663e-05 0.00010086 0)
(6.8895e-05 0.00010165 0)
(6.9125e-05 0.00010245 0)
(6.9355e-05 0.00010324 0)
(6.9583e-05 0.00010404 0)
(6.981e-05 0.00010485 0)
(7.0036e-05 0.00010565 0)
(7.0261e-05 0.00010646 0)
(7.0485e-05 0.00010727 0)
(7.0708e-05 0.00010808 0)
(7.0929e-05 0.00010889 0)
(7.1149e-05 0.00010971 0)
(7.1369e-05 0.00011053 0)
(7.1587e-05 0.00011135 0)
(7.1804e-05 0.00011217 0)
(7.202e-05 0.00011299 0)
(7.2235e-05 0.00011382 0)
(7.2448e-05 0.00011465 0)
(7.2661e-05 0.00011548 0)
(7.2872e-05 0.00011631 0)
(7.3082e-05 0.00011715 0)
(7.3291e-05 0.00011799 0)
(7.3499e-05 0.00011883 0)
(7.3706e-05 0.00011967 0)
(7.3911e-05 0.00012051 0)
(7.4116e-05 0.00012136 0)
(7.4319e-05 0.00012221 0)
(7.4521e-05 0.00012306 0)
(7.4722e-05 0.00012391 0)
(7.4922e-05 0.00012476 0)
(7.512e-05 0.00012562 0)
(7.5318e-05 0.00012648 0)
(7.5514e-05 0.00012734 0)
(7.5709e-05 0.0001282 0)
(7.5904e-05 0.00012907 0)
(7.6097e-05 0.00012993 0)
(7.6288e-05 0.0001308 0)
(7.6479e-05 0.00013167 0)
(7.6669e-05 0.00013254 0)
(7.6857e-05 0.00013342 0)
(7.7044e-05 0.00013429 0)
(7.7231e-05 0.00013517 0)
(7.7416e-05 0.00013605 0)
(7.7599e-05 0.00013694 0)
(7.7782e-05 0.00013782 0)
(7.7964e-05 0.0001387 0)
(7.8144e-05 0.00013959 0)
(7.8323e-05 0.00014048 0)
(7.8501e-05 0.00014137 0)
(7.8678e-05 0.00014227 0)
(7.8854e-05 0.00014316 0)
(7.9028e-05 0.00014406 0)
(7.9201e-05 0.00014496 0)
(7.9374e-05 0.00014586 0)
(7.9545e-05 0.00014676 0)
(7.9714e-05 0.00014766 0)
(7.9883e-05 0.00014857 0)
(8.005e-05 0.00014947 0)
(8.0217e-05 0.00015038 0)
(8.0382e-05 0.00015129 0)
(8.0545e-05 0.00015221 0)
(8.0708e-05 0.00015312 0)
(8.0869e-05 0.00015404 0)
(8.103e-05 0.00015495 0)
(8.1189e-05 0.00015587 0)
(8.1346e-05 0.00015679 0)
(8.1503e-05 0.00015772 0)
(8.1658e-05 0.00015864 0)
(8.1812e-05 0.00015957 0)
(8.1965e-05 0.00016049 0)
(8.2117e-05 0.00016142 0)
(8.2267e-05 0.00016235 0)
(8.2417e-05 0.00016328 0)
(8.2565e-05 0.00016422 0)
(8.2711e-05 0.00016515 0)
(8.2857e-05 0.00016609 0)
(8.3001e-05 0.00016703 0)
(8.3144e-05 0.00016796 0)
(8.3286e-05 0.00016891 0)
(8.3426e-05 0.00016985 0)
(8.3565e-05 0.00017079 0)
(8.3703e-05 0.00017174 0)
(8.384e-05 0.00017268 0)
(8.3975e-05 0.00017363 0)
(8.4109e-05 0.00017458 0)
(8.4242e-05 0.00017553 0)
(8.4373e-05 0.00017648 0)
(8.4503e-05 0.00017744 0)
(8.4632e-05 0.00017839 0)
(8.4759e-05 0.00017935 0)
(8.4885e-05 0.0001803 0)
(8.501e-05 0.00018126 0)
(8.5134e-05 0.00018222 0)
(8.5256e-05 0.00018318 0)
(8.5377e-05 0.00018415 0)
(8.5496e-05 0.00018511 0)
(8.5614e-05 0.00018607 0)
(8.5731e-05 0.00018704 0)
(8.5846e-05 0.00018801 0)
(8.596e-05 0.00018897 0)
(8.6073e-05 0.00018994 0)
(8.6184e-05 0.00019091 0)
(8.6294e-05 0.00019189 0)
(8.6402e-05 0.00019286 0)
(8.6509e-05 0.00019383 0)
(8.6614e-05 0.00019481 0)
(8.6718e-05 0.00019578 0)
(8.6821e-05 0.00019676 0)
(8.6922e-05 0.00019774 0)
(8.7022e-05 0.00019872 0)
(8.712e-05 0.00019969 0)
(8.7217e-05 0.00020068 0)
(8.7312e-05 0.00020166 0)
(8.7406e-05 0.00020264 0)
(8.7498e-05 0.00020362 0)
(8.7589e-05 0.0002046 0)
(8.7679e-05 0.00020559 0)
(8.7766e-05 0.00020657 0)
(8.7853e-05 0.00020756 0)
(8.7937e-05 0.00020855 0)
(8.802e-05 0.00020953 0)
(8.8102e-05 0.00021052 0)
(8.8182e-05 0.00021151 0)
(8.8261e-05 0.0002125 0)
(8.8338e-05 0.00021349 0)
(8.8413e-05 0.00021448 0)
(8.8487e-05 0.00021547 0)
(8.8559e-05 0.00021646 0)
(8.863e-05 0.00021745 0)
(8.8699e-05 0.00021844 0)
(8.8766e-05 0.00021944 0)
(8.8832e-05 0.00022043 0)
(8.8896e-05 0.00022142 0)
(8.8958e-05 0.00022241 0)
(8.9019e-05 0.00022341 0)
(8.9079e-05 0.0002244 0)
(8.9136e-05 0.00022539 0)
(8.9192e-05 0.00022639 0)
(8.9247e-05 0.00022738 0)
(8.9299e-05 0.00022838 0)
(8.935e-05 0.00022937 0)
(8.94e-05 0.00023036 0)
(8.9448e-05 0.00023136 0)
(8.9494e-05 0.00023235 0)
(8.9538e-05 0.00023334 0)
(8.9581e-05 0.00023433 0)
(8.9623e-05 0.00023533 0)
(8.9662e-05 0.00023632 0)
(8.9701e-05 0.00023731 0)
(8.9737e-05 0.0002383 0)
(8.9772e-05 0.00023929 0)
(8.9805e-05 0.00024028 0)
(8.9837e-05 0.00024127 0)
(8.9868e-05 0.00024226 0)
(8.9896e-05 0.00024325 0)
(8.9924e-05 0.00024423 0)
(8.9949e-05 0.00024522 0)
(8.9974e-05 0.00024621 0)
(8.9996e-05 0.00024719 0)
(9.0018e-05 0.00024818 0)
(9.0038e-05 0.00024916 0)
(9.0057e-05 0.00025014 0)
(9.0074e-05 0.00025112 0)
(9.009e-05 0.0002521 0)
(9.0105e-05 0.00025308 0)
(9.0118e-05 0.00025406 0)
(9.013e-05 0.00025503 0)
(9.0142e-05 0.00025601 0)
(9.0152e-05 0.00025698 0)
(9.016e-05 0.00025796 0)
(9.0168e-05 0.00025893 0)
(9.0175e-05 0.0002599 0)
(9.0181e-05 0.00026086 0)
(9.0186e-05 0.00026183 0)
(9.0191e-05 0.0002628 0)
(9.0194e-05 0.00026376 0)
(9.0197e-05 0.00026472 0)
(9.0199e-05 0.00026569 0)
(9.02e-05 0.00026665 0)
(9.0201e-05 0.0002676 0)
(9.0201e-05 0.00026856 0)
(9.0201e-05 0.00026952 0)
(9.0201e-05 0.00027047 0)
(9.02e-05 0.00027142 0)
(9.0199e-05 0.00027238 0)
(9.0198e-05 0.00027333 0)
(9.0197e-05 0.00027428 0)
(9.0195e-05 0.00027523 0)
(9.0194e-05 0.00027617 0)
(9.0192e-05 0.00027712 0)
(9.0191e-05 0.00027807 0)
(9.019e-05 0.00027901 0)
(9.0188e-05 0.00027995 0)
(9.0187e-05 0.0002809 0)
(9.0187e-05 0.00028184 0)
(9.0186e-05 0.00028279 0)
(9.0186e-05 0.00028373 0)
(9.0185e-05 0.00028467 0)
(9.0185e-05 0.00028562 0)
(9.0185e-05 0.00028656 0)
(2.2508e-07 1.8579e-07 0)
(7.2287e-07 5.6438e-07 0)
(1.2405e-06 9.3167e-07 0)
(1.7562e-06 1.2762e-06 0)
(2.2645e-06 1.5998e-06 0)
(2.7655e-06 1.9078e-06 0)
(3.2587e-06 2.2039e-06 0)
(3.7438e-06 2.4908e-06 0)
(4.2212e-06 2.7701e-06 0)
(4.6918e-06 3.0434e-06 0)
(5.1561e-06 3.3118e-06 0)
(5.6147e-06 3.5763e-06 0)
(6.0682e-06 3.8377e-06 0)
(6.5171e-06 4.0967e-06 0)
(6.9616e-06 4.354e-06 0)
(7.4023e-06 4.6101e-06 0)
(7.8394e-06 4.8653e-06 0)
(8.2732e-06 5.1202e-06 0)
(8.7039e-06 5.3751e-06 0)
(9.1318e-06 5.6302e-06 0)
(9.5569e-06 5.8859e-06 0)
(9.9796e-06 6.1423e-06 0)
(1.04e-05 6.3998e-06 0)
(1.0818e-05 6.6585e-06 0)
(1.1234e-05 6.9186e-06 0)
(1.1648e-05 7.1803e-06 0)
(1.206e-05 7.4436e-06 0)
(1.2471e-05 7.7089e-06 0)
(1.288e-05 7.9761e-06 0)
(1.3287e-05 8.2454e-06 0)
(1.3692e-05 8.5168e-06 0)
(1.4096e-05 8.7906e-06 0)
(1.4498e-05 9.0667e-06 0)
(1.49e-05 9.3453e-06 0)
(1.5299e-05 9.6265e-06 0)
(1.5698e-05 9.9102e-06 0)
(1.6095e-05 1.0197e-05 0)
(1.649e-05 1.0486e-05 0)
(1.6885e-05 1.0778e-05 0)
(1.7278e-05 1.1072e-05 0)
(1.7671e-05 1.137e-05 0)
(1.8062e-05 1.1671e-05 0)
(1.8452e-05 1.1974e-05 0)
(1.8841e-05 1.2281e-05 0)
(1.9228e-05 1.259e-05 0)
(1.9615e-05 1.2903e-05 0)
(2.0001e-05 1.3219e-05 0)
(2.0385e-05 1.3538e-05 0)
(2.0769e-05 1.386e-05 0)
(2.1152e-05 1.4185e-05 0)
(2.1533e-05 1.4514e-05 0)
(2.1914e-05 1.4846e-05 0)
(2.2293e-05 1.5181e-05 0)
(2.2672e-05 1.5519e-05 0)
(2.305e-05 1.5861e-05 0)
(2.3427e-05 1.6206e-05 0)
(2.3802e-05 1.6554e-05 0)
(2.4177e-05 1.6906e-05 0)
(2.4551e-05 1.7261e-05 0)
(2.4924e-05 1.7619e-05 0)
(2.5296e-05 1.7981e-05 0)
(2.5668e-05 1.8346e-05 0)
(2.6038e-05 1.8714e-05 0)
(2.6407e-05 1.9086e-05 0)
(2.6776e-05 1.9462e-05 0)
(2.7143e-05 1.984e-05 0)
(2.751e-05 2.0223e-05 0)
(2.7876e-05 2.0608e-05 0)
(2.824e-05 2.0997e-05 0)
(2.8604e-05 2.139e-05 0)
(2.8967e-05 2.1786e-05 0)
(2.933e-05 2.2185e-05 0)
(2.9691e-05 2.2588e-05 0)
(3.0051e-05 2.2994e-05 0)
(3.0411e-05 2.3404e-05 0)
(3.0769e-05 2.3817e-05 0)
(3.1127e-05 2.4234e-05 0)
(3.1484e-05 2.4654e-05 0)
(3.184e-05 2.5077e-05 0)
(3.2195e-05 2.5504e-05 0)
(3.2549e-05 2.5935e-05 0)
(3.2902e-05 2.6369e-05 0)
(3.3254e-05 2.6806e-05 0)
(3.3606e-05 2.7247e-05 0)
(3.3956e-05 2.7691e-05 0)
(3.4306e-05 2.8139e-05 0)
(3.4655e-05 2.859e-05 0)
(3.5003e-05 2.9044e-05 0)
(3.535e-05 2.9502e-05 0)
(3.5697e-05 2.9963e-05 0)
(3.6042e-05 3.0428e-05 0)
(3.6387e-05 3.0896e-05 0)
(3.6731e-05 3.1367e-05 0)
(3.7074e-05 3.1842e-05 0)
(3.7417e-05 3.232e-05 0)
(3.7759e-05 3.2802e-05 0)
(3.81e-05 3.3287e-05 0)
(3.844e-05 3.3775e-05 0)
(3.878e-05 3.4266e-05 0)
(3.9119e-05 3.4762e-05 0)
(3.9458e-05 3.526e-05 0)
(3.9795e-05 3.5762e-05 0)
(4.0132e-05 3.6268e-05 0)
(4.0467e-05 3.6777e-05 0)
(4.0802e-05 3.729e-05 0)
(4.1135e-05 3.7806e-05 0)
(4.1467e-05 3.8326e-05 0)
(4.1798e-05 3.8849e-05 0)
(4.2128e-05 3.9375e-05 0)
(4.2457e-05 3.9905e-05 0)
(4.2785e-05 4.0438e-05 0)
(4.3112e-05 4.0974e-05 0)
(4.3437e-05 4.1514e-05 0)
(4.3762e-05 4.2057e-05 0)
(4.4085e-05 4.2604e-05 0)
(4.4407e-05 4.3154e-05 0)
(4.4729e-05 4.3706e-05 0)
(4.5049e-05 4.4263e-05 0)
(4.5368e-05 4.4822e-05 0)
(4.5686e-05 4.5385e-05 0)
(4.6003e-05 4.5951e-05 0)
(4.6319e-05 4.652e-05 0)
(4.6634e-05 4.7093e-05 0)
(4.6948e-05 4.7668e-05 0)
(4.726e-05 4.8247e-05 0)
(4.7572e-05 4.8829e-05 0)
(4.7883e-05 4.9414e-05 0)
(4.8192e-05 5.0003e-05 0)
(4.85e-05 5.0594e-05 0)
(4.8808e-05 5.1189e-05 0)
(4.9114e-05 5.1786e-05 0)
(4.9419e-05 5.2387e-05 0)
(4.9724e-05 5.2991e-05 0)
(5.0027e-05 5.3598e-05 0)
(5.0329e-05 5.4209e-05 0)
(5.063e-05 5.4822e-05 0)
(5.093e-05 5.5438e-05 0)
(5.1229e-05 5.6058e-05 0)
(5.1526e-05 5.668e-05 0)
(5.1823e-05 5.7306e-05 0)
(5.2119e-05 5.7934e-05 0)
(5.2413e-05 5.8566e-05 0)
(5.2707e-05 5.92e-05 0)
(5.3e-05 5.9838e-05 0)
(5.3291e-05 6.0479e-05 0)
(5.3581e-05 6.1122e-05 0)
(5.387e-05 6.1769e-05 0)
(5.4159e-05 6.2418e-05 0)
(5.4446e-05 6.3071e-05 0)
(5.4732e-05 6.3726e-05 0)
(5.5017e-05 6.4384e-05 0)
(5.5301e-05 6.5045e-05 0)
(5.5584e-05 6.5709e-05 0)
(5.5865e-05 6.6376e-05 0)
(5.6146e-05 6.7046e-05 0)
(5.6426e-05 6.7719e-05 0)
(5.6704e-05 6.8395e-05 0)
(5.6982e-05 6.9073e-05 0)
(5.7258e-05 6.9755e-05 0)
(5.7533e-05 7.0439e-05 0)
(5.7807e-05 7.1126e-05 0)
(5.808e-05 7.1815e-05 0)
(5.8352e-05 7.2508e-05 0)
(5.8623e-05 7.3203e-05 0)
(5.8893e-05 7.3901e-05 0)
(5.9162e-05 7.4602e-05 0)
(5.943e-05 7.5306e-05 0)
(5.9696e-05 7.6012e-05 0)
(5.9962e-05 7.6721e-05 0)
(6.0226e-05 7.7433e-05 0)
(6.049e-05 7.8148e-05 0)
(6.0752e-05 7.8865e-05 0)
(6.1013e-05 7.9585e-05 0)
(6.1273e-05 8.0308e-05 0)
(6.1532e-05 8.1033e-05 0)
(6.179e-05 8.1761e-05 0)
(6.2047e-05 8.2492e-05 0)
(6.2302e-05 8.3225e-05 0)
(6.2557e-05 8.3961e-05 0)
(6.281e-05 8.4699e-05 0)
(6.3063e-05 8.544e-05 0)
(6.3314e-05 8.6184e-05 0)
(6.3564e-05 8.693e-05 0)
(6.3813e-05 8.7679e-05 0)
(6.4061e-05 8.8431e-05 0)
(6.4307e-05 8.9185e-05 0)
(6.4553e-05 8.9941e-05 0)
(6.4798e-05 9.07e-05 0)
(6.5041e-05 9.1461e-05 0)
(6.5283e-05 9.2225e-05 0)
(6.5525e-05 9.2992e-05 0)
(6.5765e-05 9.3761e-05 0)
(6.6004e-05 9.4532e-05 0)
(6.6242e-05 9.5306e-05 0)
(6.6479e-05 9.6082e-05 0)
(6.6715e-05 9.6861e-05 0)
(6.695e-05 9.7642e-05 0)
(6.7183e-05 9.8425e-05 0)
(6.7416e-05 9.9211e-05 0)
(6.7647e-05 0.0001 0)
(6.7878e-05 0.00010079 0)
(6.8107e-05 0.00010158 0)
(6.8335e-05 0.00010238 0)
(6.8562e-05 0.00010318 0)
(6.8788e-05 0.00010398 0)
(6.9013e-05 0.00010478 0)
(6.9237e-05 0.00010558 0)
(6.9459e-05 0.00010639 0)
(6.9681e-05 0.0001072 0)
(6.9901e-05 0.00010801 0)
(7.012e-05 0.00010883 0)
(7.0339e-05 0.00010964 0)
(7.0556e-05 0.00011046 0)
(7.0772e-05 0.00011128 0)
(7.0986e-05 0.0001121 0)
(7.12e-05 0.00011293 0)
(7.1413e-05 0.00011376 0)
(7.1624e-05 0.00011458 0)
(7.1834e-05 0.00011542 0)
(7.2044e-05 0.00011625 0)
(7.2252e-05 0.00011709 0)
(7.2458e-05 0.00011792 0)
(7.2664e-05 0.00011876 0)
(7.2869e-05 0.00011961 0)
(7.3072e-05 0.00012045 0)
(7.3274e-05 0.0001213 0)
(7.3475e-05 0.00012215 0)
(7.3675e-05 0.000123 0)
(7.3874e-05 0.00012385 0)
(7.4072e-05 0.0001247 0)
(7.4269e-05 0.00012556 0)
(7.4464e-05 0.00012642 0)
(7.4659e-05 0.00012728 0)
(7.4852e-05 0.00012814 0)
(7.5044e-05 0.00012901 0)
(7.5235e-05 0.00012988 0)
(7.5425e-05 0.00013074 0)
(7.5614e-05 0.00013162 0)
(7.5801e-05 0.00013249 0)
(7.5988e-05 0.00013336 0)
(7.6173e-05 0.00013424 0)
(7.6358e-05 0.00013512 0)
(7.6541e-05 0.000136 0)
(7.6723e-05 0.00013688 0)
(7.6903e-05 0.00013776 0)
(7.7083e-05 0.00013865 0)
(7.7262e-05 0.00013954 0)
(7.7439e-05 0.00014043 0)
(7.7615e-05 0.00014132 0)
(7.779e-05 0.00014221 0)
(7.7964e-05 0.00014311 0)
(7.8137e-05 0.00014401 0)
(7.8308e-05 0.0001449 0)
(7.8479e-05 0.0001458 0)
(7.8648e-05 0.00014671 0)
(7.8816e-05 0.00014761 0)
(7.8983e-05 0.00014852 0)
(7.9148e-05 0.00014942 0)
(7.9313e-05 0.00015033 0)
(7.9476e-05 0.00015125 0)
(7.9638e-05 0.00015216 0)
(7.9799e-05 0.00015307 0)
(7.9959e-05 0.00015399 0)
(8.0118e-05 0.00015491 0)
(8.0275e-05 0.00015583 0)
(8.0431e-05 0.00015675 0)
(8.0586e-05 0.00015767 0)
(8.074e-05 0.00015859 0)
(8.0893e-05 0.00015952 0)
(8.1044e-05 0.00016045 0)
(8.1194e-05 0.00016138 0)
(8.1343e-05 0.00016231 0)
(8.1491e-05 0.00016324 0)
(8.1637e-05 0.00016417 0)
(8.1782e-05 0.00016511 0)
(8.1926e-05 0.00016604 0)
(8.2069e-05 0.00016698 0)
(8.221e-05 0.00016792 0)
(8.2351e-05 0.00016886 0)
(8.249e-05 0.00016981 0)
(8.2627e-05 0.00017075 0)
(8.2764e-05 0.0001717 0)
(8.2899e-05 0.00017264 0)
(8.3033e-05 0.00017359 0)
(8.3166e-05 0.00017454 0)
(8.3297e-05 0.00017549 0)
(8.3427e-05 0.00017644 0)
(8.3556e-05 0.0001774 0)
(8.3683e-05 0.00017835 0)
(8.3809e-05 0.00017931 0)
(8.3934e-05 0.00018027 0)
(8.4058e-05 0.00018123 0)
(8.418e-05 0.00018219 0)
(8.4301e-05 0.00018315 0)
(8.4421e-05 0.00018411 0)
(8.4539e-05 0.00018507 0)
(8.4656e-05 0.00018604 0)
(8.4771e-05 0.00018701 0)
(8.4886e-05 0.00018797 0)
(8.4998e-05 0.00018894 0)
(8.511e-05 0.00018991 0)
(8.522e-05 0.00019088 0)
(8.5329e-05 0.00019185 0)
(8.5436e-05 0.00019283 0)
(8.5542e-05 0.0001938 0)
(8.5646e-05 0.00019478 0)
(8.575e-05 0.00019575 0)
(8.5851e-05 0.00019673 0)
(8.5952e-05 0.00019771 0)
(8.605e-05 0.00019869 0)
(8.6148e-05 0.00019967 0)
(8.6244e-05 0.00020065 0)
(8.6338e-05 0.00020163 0)
(8.6431e-05 0.00020261 0)
(8.6523e-05 0.00020359 0)
(8.6613e-05 0.00020458 0)
(8.6701e-05 0.00020556 0)
(8.6788e-05 0.00020655 0)
(8.6874e-05 0.00020753 0)
(8.6958e-05 0.00020852 0)
(8.7041e-05 0.00020951 0)
(8.7122e-05 0.0002105 0)
(8.7201e-05 0.00021149 0)
(8.7279e-05 0.00021248 0)
(8.7356e-05 0.00021347 0)
(8.7431e-05 0.00021446 0)
(8.7504e-05 0.00021545 0)
(8.7576e-05 0.00021644 0)
(8.7646e-05 0.00021743 0)
(8.7715e-05 0.00021842 0)