/*--------------------------------*- C++ -*----------------------------------*\
| =========                 |                                                 |
| \\      /  F ield         | OpenFOAM: The Open Source CFD Toolbox           |
|  \\    /   O peration     | Version:  5.x                                   |
|   \\  /    A nd           | Web:      www.OpenFOAM.org                      |
|    \\/     M anipulation  |                                                 |
\*---------------------------------------------------------------------------*/
FoamFile
{
    version     2.0;
    format      ascii;
    class       volSymmTensorField;
    location    "5";
    object      sigmaD;
}
// * * * * * * * * * * * * * * * * * * * * * * * * * * * * * * * * * * * * * //

dimensions      [0 2 -2 0 0 0 0];

internalField   nonuniform List<symmTensor> 
80000
(
(27072 2001.9 0 1455.8 0 6583.4)
(20469 820.94 0 81.852 0 4742.5)
(18223 421.92 0 -49.88 0 4193.9)
(16942 279.12 0 -20.8 0 3905)
(16052 210.73 0 -0.17794 0 3704.3)
(15383 166.69 0 5.5293 0 3551.2)
(14887 134.87 0 4.5686 0 3436.4)
(14474 111.06 0 2.5046 0 3340.7)
(14129 93.085 0 1.389 0 3261)
(13839 79.279 0 0.93934 0 3193.8)
(13590 68.452 0 0.81536 0 3136.3)
(13374 59.799 0 0.85647 0 3086.5)
(13184 52.773 0 0.9866 0 3042.8)
(13016 46.992 0 1.1657 0 3004)
(12866 42.18 0 1.3703 0 2969.4)
(12731 38.134 0 1.5858 0 2938.2)
(12608 34.702 0 1.8033 0 2910)
(12496 31.767 0 2.0171 0 2884.1)
(12393 29.241 0 2.2238 0 2860.4)
(12298 27.051 0 2.4214 0 2838.5)
(12210 25.143 0 2.6092 0 2818.2)
(12128 23.472 0 2.7865 0 2799.3)
(12051 22.001 0 2.9534 0 2781.6)
(11978 20.702 0 3.1102 0 2764.9)
(11910 19.549 0 3.2572 0 2749.2)
(11845 18.522 0 3.3948 0 2734.3)
(11784 17.606 0 3.5235 0 2720.2)
(11726 16.785 0 3.6438 0 2706.8)
(11670 16.048 0 3.7563 0 2693.9)
(11616 15.384 0 3.8614 0 2681.6)
(11565 14.785 0 3.9595 0 2669.7)
(11515 14.243 0 4.0512 0 2658.3)
(11468 13.752 0 4.1367 0 2647.3)
(11421 13.307 0 4.2166 0 2636.7)
(11377 12.902 0 4.2912 0 2626.4)
(11333 12.533 0 4.3608 0 2616.3)
(11291 12.197 0 4.4258 0 2606.6)
(11249 11.89 0 4.4864 0 2597.1)
(11209 11.608 0 4.5431 0 2587.8)
(11170 11.351 0 4.5961 0 2578.7)
(11131 11.114 0 4.6455 0 2569.8)
(11093 10.896 0 4.6917 0 2561.1)
(11056 10.695 0 4.7348 0 2552.5)
(11020 10.51 0 4.7751 0 2544.1)
(10984 10.339 0 4.8126 0 2535.8)
(10948 10.182 0 4.8475 0 2527.7)
(10913 10.037 0 4.8799 0 2519.6)
(10879 9.9044 0 4.91 0 2511.7)
(10845 9.7826 0 4.938 0 2503.9)
(10811 9.6711 0 4.9638 0 2496.1)
(10778 9.5693 0 4.9876 0 2488.4)
(10745 9.4765 0 5.0096 0 2480.8)
(10713 9.392 0 5.0297 0 2473.3)
(10680 9.3149 0 5.0481 0 2465.8)
(10648 9.2447 0 5.0648 0 2458.4)
(10616 9.1806 0 5.0798 0 2451)
(10584 9.1218 0 5.0932 0 2443.7)
(10553 9.0676 0 5.1052 0 2436.4)
(10521 9.0172 0 5.1161 0 2429.2)
(10490 8.9698 0 5.1259 0 2422)
(10459 8.9246 0 5.1349 0 2414.8)
(10428 8.8809 0 5.1433 0 2407.6)
(10397 8.8383 0 5.151 0 2400.5)
(10366 8.7973 0 5.1577 0 2393.4)
(10336 8.7586 0 5.1632 0 2386.4)
(10305 8.7237 0 5.1671 0 2379.4)
(10275 8.6941 0 5.1692 0 2372.4)
(10245 8.671 0 5.1697 0 2365.4)
(10215 8.6542 0 5.1691 0 2358.4)
(10184 8.6427 0 5.1681 0 2351.4)
(10154 8.6339 0 5.1674 0 2344.5)
(10124 8.6245 0 5.168 0 2337.5)
(10094 8.611 0 5.1704 0 2330.6)
(10064 8.5911 0 5.1739 0 2323.6)
(10034 8.5649 0 5.1766 0 2316.7)
(10004 8.5364 0 5.1761 0 2309.8)
(9974.2 8.511 0 5.1721 0 2302.9)
(9944.5 8.4931 0 5.1657 0 2296.1)
(9914.8 8.4839 0 5.1589 0 2289.2)
(9885.1 8.4814 0 5.1544 0 2282.4)
(9855.5 8.4803 0 5.1521 0 2275.5)
(9825.8 8.4769 0 5.1457 0 2268.7)
(9796.1 8.4715 0 5.1349 0 2261.8)
(9766.4 8.4667 0 5.1221 0 2255)
(9736.8 8.4646 0 5.0951 0 2248.1)
(9707.3 8.4621 0 5.0555 0 2241.3)
(9677.7 8.4707 0 5.0286 0 2234.5)
(9648.2 8.5111 0 5.0151 0 2227.7)
(9618.7 8.5851 0 4.9939 0 2220.8)
(9589.3 8.6409 0 4.9631 0 2214.1)
(9560.3 8.7196 0 4.9152 0 2207.4)
(9531.3 8.9216 0 4.8018 0 2200.6)
(9503.3 9.2611 0 4.6657 0 2194.2)
(9471.6 9.7265 0 4.6213 0 2186.8)
(9438 10.271 0 4.6046 0 2179.1)
(9404.4 10.807 0 4.5935 0 2171.3)
(9365.3 11.231 0 4.701 0 2162.3)
(9325.3 11.519 0 4.7953 0 2153.1)
(9287.8 11.782 0 4.8111 0 2144.5)
(9244.9 11.956 0 4.9435 0 2134.6)
(9201.6 11.918 0 5.1499 0 2124.6)
(9159.6 11.644 0 5.2824 0 2115)
(9118.8 11.205 0 5.3605 0 2105.6)
(9078.7 10.726 0 5.3573 0 2096.3)
(9043.4 10.33 0 5.2436 0 2088.1)
(9007.1 10.07 0 5.1334 0 2079.7)
(8971.5 9.8813 0 5.0711 0 2071.5)
(8936.7 9.7302 0 5.0161 0 2063.5)
(8902.3 9.6043 0 4.9658 0 2055.5)
(8868.4 9.4984 0 4.9217 0 2047.7)
(8834.9 9.4092 0 4.8838 0 2039.9)
(8801.7 9.3338 0 4.8509 0 2032.3)
(8768.7 9.2696 0 4.8219 0 2024.7)
(8735.9 9.2146 0 4.7958 0 2017.1)
(8703.3 9.1671 0 4.7718 0 2009.6)
(8670.9 9.1257 0 4.7493 0 2002.1)
(8638.6 9.0894 0 4.7281 0 1994.6)
(8606.4 9.0574 0 4.7079 0 1987.2)
(8574.3 9.029 0 4.6884 0 1979.8)
(8542.3 9.0037 0 4.6695 0 1972.4)
(8510.4 8.9809 0 4.651 0 1965)
(8478.6 8.9604 0 4.633 0 1957.7)
(8446.8 8.9418 0 4.6152 0 1950.3)
(8415.1 8.925 0 4.5977 0 1943)
(8383.5 8.9095 0 4.5804 0 1935.7)
(8351.8 8.8954 0 4.5632 0 1928.4)
(8320.3 8.8823 0 4.5462 0 1921.1)
(8288.7 8.8703 0 4.5293 0 1913.8)
(8257.2 8.8592 0 4.5125 0 1906.6)
(8225.8 8.8488 0 4.4957 0 1899.3)
(8194.4 8.8392 0 4.479 0 1892)
(8163 8.8302 0 4.4624 0 1884.8)
(8131.6 8.8217 0 4.4458 0 1877.5)
(8100.2 8.8138 0 4.4292 0 1870.3)
(8068.9 8.8063 0 4.4127 0 1863.1)
(8037.6 8.7993 0 4.3961 0 1855.8)
(8006.3 8.7927 0 4.3796 0 1848.6)
(7975 8.7864 0 4.3631 0 1841.4)
(7943.8 8.7804 0 4.3466 0 1834.2)
(7912.5 8.7747 0 4.3301 0 1827)
(7881.3 8.7693 0 4.3136 0 1819.8)
(7850.1 8.7642 0 4.297 0 1812.5)
(7818.9 8.7593 0 4.2805 0 1805.3)
(7787.7 8.7546 0 4.2639 0 1798.1)
(7756.5 8.7501 0 4.2474 0 1790.9)
(7725.3 8.7458 0 4.2308 0 1783.7)
(7694.2 8.7416 0 4.2142 0 1776.6)
(7663 8.7376 0 4.1976 0 1769.4)
(7631.9 8.7336 0 4.181 0 1762.2)
(7600.8 8.7298 0 4.1643 0 1755)
(7569.6 8.726 0 4.1477 0 1747.8)
(7538.5 8.7222 0 4.1311 0 1740.6)
(7507.4 8.7184 0 4.1144 0 1733.4)
(7476.3 8.7146 0 4.0978 0 1726.3)
(7445.2 8.7109 0 4.0812 0 1719.1)
(7414.2 8.7072 0 4.0646 0 1711.9)
(7383.1 8.7035 0 4.0479 0 1704.7)
(7352 8.7 0 4.0313 0 1697.6)
(7321 8.6966 0 4.0147 0 1690.4)
(7289.9 8.6933 0 3.9981 0 1683.2)
(7258.9 8.6902 0 3.9815 0 1676)
(7227.8 8.6873 0 3.9649 0 1668.9)
(7196.8 8.6845 0 3.9484 0 1661.7)
(7165.8 8.6817 0 3.932 0 1654.6)
(7134.8 8.679 0 3.9155 0 1647.4)
(7103.8 8.6764 0 3.8989 0 1640.2)
(7072.7 8.674 0 3.8821 0 1633.1)
(7041.7 8.6719 0 3.8656 0 1625.9)
(7010.7 8.6697 0 3.8495 0 1618.7)
(6979.7 8.6672 0 3.8339 0 1611.6)
(6948.7 8.6643 0 3.818 0 1604.4)
(6917.7 8.6613 0 3.8012 0 1597.3)
(6886.8 8.6584 0 3.7844 0 1590.1)
(6855.8 8.6557 0 3.7686 0 1583)
(6824.8 8.6521 0 3.7541 0 1575.8)
(6793.8 8.6488 0 3.7411 0 1568.7)
(6762.7 8.6415 0 3.7292 0 1561.5)
(6731.7 8.6218 0 3.7206 0 1554.3)
(6700.6 8.5858 0 3.7175 0 1547.2)
(6669.7 8.5324 0 3.7132 0 1540)
(6639.1 8.4688 0 3.6953 0 1532.9)
(6608.8 8.4187 0 3.6613 0 1526)
(6578.7 8.3956 0 3.6174 0 1519)
(6548.8 8.4042 0 3.5744 0 1512.1)
(6518.6 8.438 0 3.5459 0 1505.1)
(6488.1 8.475 0 3.5324 0 1498.1)
(6457.6 8.5011 0 3.5226 0 1491)
(6427.1 8.5163 0 3.5096 0 1484)
(6396.6 8.5271 0 3.4947 0 1476.9)
(6366 8.5362 0 3.4806 0 1469.9)
(6335.4 8.5442 0 3.4669 0 1462.8)
(6304.8 8.551 0 3.453 0 1455.7)
(6274.1 8.5567 0 3.4386 0 1448.7)
(6243.4 8.5614 0 3.4238 0 1441.6)
(6212.7 8.5654 0 3.4087 0 1434.5)
(6182 8.5686 0 3.3932 0 1427.4)
(6151.2 8.5713 0 3.3775 0 1420.3)
(6120.5 8.5737 0 3.3617 0 1413.2)
(6089.7 8.5756 0 3.3457 0 1406.1)
(6058.9 8.5773 0 3.3296 0 1399)
(6028.1 8.5787 0 3.3135 0 1391.9)
(5997.3 8.5799 0 3.2973 0 1384.8)
(5966.5 8.5807 0 3.281 0 1377.6)
(5935.7 8.5814 0 3.2647 0 1370.5)
(5904.9 8.5819 0 3.2483 0 1363.4)
(5874.1 8.5824 0 3.2319 0 1356.3)
(5843.2 8.583 0 3.2153 0 1349.2)
(5812.4 8.5837 0 3.1986 0 1342.1)
(5781.5 8.5847 0 3.1818 0 1334.9)
(5750.7 8.5859 0 3.165 0 1327.8)
(5719.8 8.5873 0 3.1484 0 1320.7)
(5688.9 8.5885 0 3.1322 0 1313.6)
(5658.1 8.5893 0 3.1167 0 1306.4)
(5627.2 8.5898 0 3.1012 0 1299.3)
(5596.3 8.5906 0 3.0856 0 1292.2)
(5565.4 8.5923 0 3.0699 0 1285)
(5534.5 8.5945 0 3.0547 0 1277.9)
(5503.5 8.5973 0 3.0415 0 1270.7)
(5472.5 8.5952 0 3.0331 0 1263.6)
(5441.4 8.5796 0 3.028 0 1256.4)
(5410.5 8.5473 0 3.0243 0 1249.3)
(5379.4 8.4977 0 3.0157 0 1242.1)
(5348.9 8.4453 0 2.9904 0 1235.1)
(5318.6 8.4132 0 2.9505 0 1228)
(5288.4 8.4123 0 2.9094 0 1221.1)
(5258 8.4351 0 2.8757 0 1214)
(5227.7 8.4698 0 2.8537 0 1207)
(5196.9 8.4989 0 2.8426 0 1199.9)
(5166.2 8.5169 0 2.8312 0 1192.9)
(5135.6 8.5301 0 2.8154 0 1185.8)
(5104.8 8.5418 0 2.8004 0 1178.7)
(5074.1 8.5529 0 2.7861 0 1171.6)
(5043.3 8.5633 0 2.7718 0 1164.5)
(5012.4 8.5732 0 2.7572 0 1157.3)
(4981.5 8.5824 0 2.7422 0 1150.2)
(4950.6 8.5911 0 2.727 0 1143.1)
(4919.6 8.5993 0 2.7114 0 1135.9)
(4888.6 8.6072 0 2.6957 0 1128.8)
(4857.6 8.6149 0 2.6797 0 1121.6)
(4826.5 8.6224 0 2.6636 0 1114.4)
(4795.5 8.6299 0 2.6474 0 1107.3)
(4764.3 8.6373 0 2.6311 0 1100.1)
(4733.2 8.6447 0 2.6147 0 1092.9)
(4702 8.6522 0 2.5982 0 1085.7)
(4670.8 8.6598 0 2.5816 0 1078.5)
(4639.5 8.6676 0 2.5649 0 1071.3)
(4608.3 8.6756 0 2.5482 0 1064)
(4576.9 8.6838 0 2.5315 0 1056.8)
(4545.6 8.6922 0 2.5146 0 1049.6)
(4514.2 8.7009 0 2.4977 0 1042.3)
(4482.8 8.7099 0 2.4808 0 1035.1)
(4451.4 8.7193 0 2.4638 0 1027.8)
(4419.9 8.729 0 2.4467 0 1020.5)
(4388.4 8.739 0 2.4295 0 1013.3)
(4356.8 8.7495 0 2.4123 0 1006)
(4325.2 8.7603 0 2.3951 0 998.67)
(4293.5 8.7716 0 2.3777 0 991.36)
(4261.8 8.7834 0 2.3604 0 984.04)
(4230.1 8.7956 0 2.3429 0 976.71)
(4198.3 8.8083 0 2.3254 0 969.37)
(4166.5 8.8215 0 2.3077 0 962.02)
(4134.6 8.8352 0 2.29 0 954.66)
(4102.6 8.8494 0 2.2722 0 947.28)
(4070.6 8.8643 0 2.2544 0 939.89)
(4038.6 8.8797 0 2.2364 0 932.49)
(4006.4 8.8957 0 2.2183 0 925.07)
(3974.3 8.9123 0 2.2001 0 917.64)
(3942 8.9295 0 2.1818 0 910.2)
(3909.7 8.9474 0 2.1634 0 902.74)
(3877.3 8.966 0 2.1449 0 895.26)
(3844.9 8.9853 0 2.1262 0 887.77)
(3812.3 9.0052 0 2.1075 0 880.26)
(3779.7 9.0259 0 2.0885 0 872.73)
(3747.1 9.0473 0 2.0694 0 865.18)
(3714.3 9.0695 0 2.0502 0 857.62)
(3681.4 9.0924 0 2.0308 0 850.03)
(3648.5 9.1161 0 2.0112 0 842.43)
(3615.5 9.1406 0 1.9915 0 834.8)
(3582.4 9.166 0 1.9715 0 827.15)
(3549.2 9.1921 0 1.9514 0 819.49)
(3515.8 9.2191 0 1.9311 0 811.79)
(3482.4 9.247 0 1.9106 0 804.08)
(3448.9 9.2757 0 1.8898 0 796.34)
(3415.3 9.3053 0 1.8688 0 788.57)
(3381.6 9.3357 0 1.8475 0 780.78)
(3347.7 9.3671 0 1.8261 0 772.97)
(3313.7 9.3993 0 1.8043 0 765.12)
(3279.6 9.4325 0 1.7823 0 757.25)
(3245.4 9.4666 0 1.7599 0 749.35)
(3211.1 9.5016 0 1.7373 0 741.42)
(3176.6 9.5375 0 1.7144 0 733.46)
(3142 9.5743 0 1.6911 0 725.47)
(3107.3 9.6121 0 1.6675 0 717.45)
(3072.4 9.6508 0 1.6436 0 709.39)
(3037.4 9.6903 0 1.6193 0 701.3)
(3002.2 9.7308 0 1.5946 0 693.18)
(2966.9 9.7722 0 1.5695 0 685.02)
(2931.4 9.8144 0 1.5441 0 676.83)
(2895.7 9.8575 0 1.5181 0 668.6)
(2860 9.9014 0 1.4918 0 660.33)
(2824 9.9462 0 1.465 0 652.03)
(2787.9 9.9917 0 1.4378 0 643.69)
(2751.6 10.038 0 1.4101 0 635.31)
(2715.1 10.085 0 1.3819 0 626.88)
(2678.5 10.133 0 1.3531 0 618.42)
(2641.7 10.181 0 1.3239 0 609.92)
(2604.7 10.23 0 1.294 0 601.38)
(2567.5 10.28 0 1.2637 0 592.79)
(2530.1 10.33 0 1.2327 0 584.16)
(2492.6 10.38 0 1.2013 0 575.49)
(2454.9 10.431 0 1.1691 0 566.78)
(2417 10.482 0 1.1364 0 558.02)
(2378.9 10.533 0 1.103 0 549.22)
(2340.6 10.585 0 1.069 0 540.38)
(2302.1 10.636 0 1.0342 0 531.49)
(2263.4 10.688 0 0.99887 0 522.56)
(2224.6 10.739 0 0.96275 0 513.59)
(2185.5 10.79 0 0.92601 0 504.57)
(2146.3 10.84 0 0.88847 0 495.5)
(2106.9 10.89 0 0.85028 0 486.4)
(2067.3 10.939 0 0.81126 0 477.25)
(2027.5 10.988 0 0.77158 0 468.06)
(1987.5 11.035 0 0.73105 0 458.83)
(1947.4 11.081 0 0.68985 0 449.56)
(1907.1 11.126 0 0.64778 0 440.25)
(1866.6 11.17 0 0.60503 0 430.9)
(1826 11.211 0 0.5614 0 421.52)
(1785.2 11.251 0 0.51708 0 412.1)
(1744.3 11.288 0 0.47189 0 402.64)
(1703.2 11.324 0 0.42602 0 393.16)
(1662.1 11.356 0 0.37928 0 383.64)
(1620.8 11.386 0 0.33187 0 374.1)
(1579.3 11.412 0 0.28361 0 364.53)
(1537.8 11.435 0 0.23471 0 354.94)
(1496.2 11.454 0 0.18497 0 345.33)
(1454.6 11.47 0 0.13464 0 335.7)
(1412.9 11.481 0 0.083522 0 326.06)
(1371.1 11.487 0 0.031851 0 316.42)
(1329.3 11.488 0 -0.020554 0 306.76)
(1287.5 11.484 0 -0.073442 0 297.11)
(1245.8 11.475 0 -0.12699 0 287.46)
(1204 11.459 0 -0.18094 0 277.81)
(1162.4 11.437 0 -0.23546 0 268.18)
(1120.8 11.408 0 -0.29028 0 258.57)
(1079.3 11.372 0 -0.34556 0 248.99)
(1037.9 11.329 0 -0.40101 0 239.43)
(996.75 11.278 0 -0.45679 0 229.91)
(955.75 11.218 0 -0.51259 0 220.44)
(914.97 11.15 0 -0.56857 0 211.02)
(874.44 11.072 0 -0.62439 0 201.65)
(834.19 10.985 0 -0.6802 0 192.35)
(794.26 10.888 0 -0.73566 0 183.12)
(754.69 10.781 0 -0.7909 0 173.98)
(715.51 10.663 0 -0.84555 0 164.92)
(676.77 10.534 0 -0.89974 0 155.97)
(638.5 10.393 0 -0.95309 0 147.13)
(600.74 10.24 0 -1.0057 0 138.4)
(563.55 10.076 0 -1.0572 0 129.8)
(526.95 9.8983 0 -1.1076 0 121.35)
(491.01 9.708 0 -1.1565 0 113.04)
(455.76 9.5045 0 -1.2041 0 104.9)
(421.25 9.2875 0 -1.2498 0 96.923)
(387.54 9.0568 0 -1.2938 0 89.133)
(354.67 8.8122 0 -1.3355 0 81.538)
(322.69 8.5534 0 -1.375 0 74.15)
(291.66 8.2805 0 -1.4119 0 66.98)
(261.62 7.9932 0 -1.4461 0 60.041)
(232.64 7.6915 0 -1.4772 0 53.344)
(204.75 7.3756 0 -1.5051 0 46.902)
(178.01 7.0454 0 -1.5293 0 40.726)
(152.48 6.7012 0 -1.5499 0 34.829)
(128.19 6.3433 0 -1.5662 0 29.222)
(105.22 5.9718 0 -1.5783 0 23.917)
(83.591 5.5874 0 -1.5855 0 18.924)
(63.363 5.1905 0 -1.5879 0 14.256)
(44.577 4.7819 0 -1.5848 0 9.9213)
(27.276 4.3624 0 -1.5762 0 5.9307)
(11.498 3.933 0 -1.5615 0 2.2929)
(-2.7229 3.4948 0 -1.5406 0 -0.98389)
(-15.355 3.0494 0 -1.5131 0 -3.8927)
(-26.374 2.5982 0 -1.4787 0 -6.4276)
(-35.762 2.1432 0 -1.437 0 -8.5843)
(-43.506 1.6867 0 -1.388 0 -10.36)
(-49.604 1.2313 0 -1.3311 0 -11.754)
(-54.063 0.77995 0 -1.2666 0 -12.768)
(-56.901 0.33633 0 -1.194 0 -13.407)
(-58.153 -0.095411 0 -1.1135 0 -13.677)
(-57.867 -0.51029 0 -1.0251 0 -13.591)
(-56.113 -0.90237 0 -0.92931 0 -13.164)
(-52.983 -1.2645 0 -0.82644 0 -12.418)
(-48.6 -1.5881 0 -0.7179 0 -11.381)
(-43.124 -1.8625 0 -0.60527 0 -10.091)
(-36.758 -2.0749 0 -0.49197 0 -8.5961)
(-29.762 -2.2099 0 -0.38279 0 -6.9564)
(-22.461 -2.2491 0 -0.28532 0 -5.2492)
(-15.259 -2.1722 0 -0.20839 0 -3.5693)
(-8.6633 -1.9588 0 -0.16255 0 -2.0367)
(-3.2842 -1.5875 0 -0.15726 0 -0.79419)
(0.10043 -1.0409 0 -0.21723 0 -0.026954)
(0.40169 -0.29502 0 -0.44737 0 -0.010542)
(18547 4577 0 2755.1 0 4915.9)
(19141 2996.6 0 877.28 0 4619.7)
(18128 1994.1 0 338.76 0 4261.5)
(17066 1396.6 0 208.82 0 3986.4)
(16209 1044.5 0 166.9 0 3779)
(15547 821.21 0 136.92 0 3619.3)
(15045 667.33 0 106.63 0 3496.6)
(14621 553.44 0 80.419 0 3392.7)
(14262 466.46 0 61.574 0 3305.4)
(13955 398.79 0 48.232 0 3231.6)
(13691 345.23 0 38.513 0 3168.3)
(13460 302.17 0 31.239 0 3113.3)
(13257 267.06 0 25.674 0 3065.2)
(13076 238.07 0 21.34 0 3022.5)
(12915 213.87 0 17.915 0 2984.5)
(12769 193.49 0 15.173 0 2950.2)
(12637 176.16 0 12.952 0 2919.2)
(12516 161.32 0 11.134 0 2891)
(12406 148.53 0 9.6316 0 2865.1)
(12304 137.43 0 8.3791 0 2841.2)
(12209 127.75 0 7.3267 0 2819.2)
(12121 119.26 0 6.4361 0 2798.6)
(12039 111.79 0 5.6776 0 2779.4)
(11961 105.18 0 5.0275 0 2761.5)
(11889 99.311 0 4.4673 0 2744.5)
(11820 94.086 0 3.9822 0 2728.5)
(11755 89.418 0 3.5599 0 2713.4)
(11692 85.234 0 3.1908 0 2699)
(11633 81.476 0 2.8667 0 2685.3)
(11577 78.091 0 2.5811 0 2672.1)
(11522 75.035 0 2.3285 0 2659.6)
(11470 72.271 0 2.1043 0 2647.5)
(11420 69.767 0 1.9048 0 2635.8)
(11371 67.493 0 1.7268 0 2624.6)
(11325 65.425 0 1.5677 0 2613.7)
(11279 63.542 0 1.4253 0 2603.2)
(11235 61.824 0 1.2978 0 2592.9)
(11192 60.254 0 1.1834 0 2583)
(11150 58.816 0 1.0809 0 2573.3)
(11109 57.498 0 0.98875 0 2563.8)
(11069 56.288 0 0.90579 0 2554.5)
(11030 55.174 0 0.83077 0 2545.5)
(10991 54.149 0 0.76251 0 2536.6)
(10953 53.204 0 0.6999 0 2527.9)
(10916 52.333 0 0.64196 0 2519.3)
(10880 51.531 0 0.58787 0 2510.9)
(10844 50.792 0 0.53705 0 2502.6)
(10809 50.114 0 0.48913 0 2494.4)
(10774 49.492 0 0.44399 0 2486.4)
(10739 48.922 0 0.40165 0 2478.4)
(10705 48.402 0 0.36223 0 2470.5)
(10672 47.927 0 0.32583 0 2462.8)
(10638 47.494 0 0.29253 0 2455.1)
(10605 47.099 0 0.26231 0 2447.4)
(10572 46.739 0 0.23514 0 2439.8)
(10540 46.41 0 0.21099 0 2432.3)
(10508 46.108 0 0.18993 0 2424.9)
(10476 45.83 0 0.17216 0 2417.5)
(10444 45.572 0 0.158 0 2410.1)
(10412 45.331 0 0.14772 0 2402.8)
(10380 45.102 0 0.14119 0 2395.5)
(10349 44.882 0 0.13744 0 2388.3)
(10318 44.669 0 0.13427 0 2381.1)
(10287 44.465 0 0.12841 0 2373.9)
(10256 44.272 0 0.11644 0 2366.8)
(10225 44.098 0 0.096261 0 2359.7)
(10195 43.949 0 0.068503 0 2352.6)
(10164 43.831 0 0.036879 0 2345.5)
(10134 43.743 0 0.0074345 0 2338.5)
(10103 43.68 0 -0.013166 0 2331.5)
(10073 43.631 0 -0.019229 0 2324.5)
(10042 43.583 0 -0.007063 0 2317.5)
(10012 43.518 0 0.023041 0 2310.5)
(9982 43.427 0 0.061833 0 2303.5)
(9951.8 43.308 0 0.089827 0 2296.6)
(9921.8 43.179 0 0.088769 0 2289.7)
(9891.8 43.063 0 0.057349 0 2282.7)
(9861.9 42.98 0 0.0090355 0 2275.8)
(9832 42.935 0 -0.038777 0 2268.9)
(9802.2 42.918 0 -0.061712 0 2262)
(9772.4 42.908 0 -0.052148 0 2255.2)
(9742.7 42.889 0 -0.046334 0 2248.3)
(9713.1 42.857 0 -0.05362 0 2241.5)
(9683.5 42.837 0 -0.055667 0 2234.6)
(9654.1 42.863 0 -0.10645 0 2227.8)
(9624.8 42.89 0 -0.2043 0 2221.1)
(9595.9 43.004 0 -0.2524 0 2214.4)
(9567 43.364 0 -0.28952 0 2207.7)
(9537.5 43.977 0 -0.4986 0 2200.8)
(9507.8 44.713 0 -0.81742 0 2193.9)
(9474.6 45.625 0 -1.0501 0 2186.2)
(9439.3 46.789 0 -1.3536 0 2178)
(9404.4 48.182 0 -1.6411 0 2169.9)
(9366 49.821 0 -1.5463 0 2161)
(9327.6 51.585 0 -1.445 0 2152.2)
(9292 53.368 0 -1.4889 0 2144)
(9252.4 54.881 0 -1.17 0 2134.9)
(9212.6 55.991 0 -0.74974 0 2125.8)
(9174.5 56.803 0 -0.51256 0 2117.1)
(9135.2 57.148 0 -0.030608 0 2108.1)
(9096.4 56.873 0 0.55603 0 2099.3)
(9060.8 56.006 0 0.87892 0 2091.2)
(9024 54.693 0 1.1195 0 2082.7)
(8987.4 53.191 0 1.2109 0 2074.3)
(8953.1 51.839 0 0.99516 0 2066.3)
(8918.1 50.792 0 0.76489 0 2058.2)
(8883.6 49.938 0 0.6421 0 2050.2)
(8849.5 49.232 0 0.54053 0 2042.3)
(8815.8 48.642 0 0.44894 0 2034.5)
(8782.5 48.147 0 0.37001 0 2026.8)
(8749.4 47.728 0 0.30477 0 2019.2)
(8716.6 47.371 0 0.25189 0 2011.6)
(8684 47.067 0 0.20919 0 2004)
(8651.5 46.804 0 0.17454 0 1996.5)
(8619.3 46.577 0 0.1462 0 1989.1)
(8587.1 46.38 0 0.12281 0 1981.7)
(8555.1 46.206 0 0.10335 0 1974.3)
(8523.2 46.053 0 0.087015 0 1966.9)
(8491.3 45.918 0 0.073219 0 1959.6)
(8459.6 45.797 0 0.061479 0 1952.2)
(8427.9 45.689 0 0.051444 0 1944.9)
(8396.4 45.593 0 0.042808 0 1937.6)
(8364.8 45.505 0 0.035352 0 1930.4)
(8333.3 45.426 0 0.028874 0 1923.1)
(8301.9 45.354 0 0.023233 0 1915.8)
(8270.5 45.288 0 0.018287 0 1908.6)
(8239.2 45.228 0 0.013946 0 1901.4)
(8207.9 45.173 0 0.010106 0 1894.1)
(8176.7 45.122 0 0.006709 0 1886.9)
(8145.4 45.076 0 0.0036788 0 1879.7)
(8114.2 45.032 0 0.00097872 0 1872.5)
(8083.1 44.992 0 -0.0014478 0 1865.3)
(8051.9 44.955 0 -0.0036224 0 1858.1)
(8020.8 44.92 0 -0.0055886 0 1851)
(7989.7 44.888 0 -0.0073576 0 1843.8)
(7958.6 44.858 0 -0.0089652 0 1836.6)
(7927.6 44.829 0 -0.010416 0 1829.4)
(7896.5 44.803 0 -0.01174 0 1822.3)
(7865.5 44.778 0 -0.012939 0 1815.1)
(7834.5 44.754 0 -0.01404 0 1808)
(7803.5 44.732 0 -0.01504 0 1800.8)
(7772.5 44.711 0 -0.015963 0 1793.7)
(7741.6 44.691 0 -0.016801 0 1786.5)
(7710.6 44.673 0 -0.017574 0 1779.4)
(7679.7 44.655 0 -0.018264 0 1772.2)
(7648.8 44.638 0 -0.018881 0 1765.1)
(7617.9 44.622 0 -0.019396 0 1758)
(7587 44.607 0 -0.019805 0 1750.8)
(7556.1 44.592 0 -0.020076 0 1743.7)
(7525.2 44.577 0 -0.020209 0 1736.6)
(7494.3 44.563 0 -0.020197 0 1729.5)
(7463.4 44.549 0 -0.020092 0 1722.3)
(7432.6 44.535 0 -0.019945 0 1715.2)
(7401.7 44.521 0 -0.019851 0 1708.1)
(7370.9 44.507 0 -0.019862 0 1701)
(7340.1 44.494 0 -0.020007 0 1693.9)
(7309.3 44.48 0 -0.02025 0 1686.7)
(7278.4 44.468 0 -0.020586 0 1679.6)
(7247.6 44.456 0 -0.021039 0 1672.5)
(7216.8 44.444 0 -0.021684 0 1665.4)
(7186.1 44.433 0 -0.022459 0 1658.3)
(7155.3 44.424 0 -0.023116 0 1651.2)
(7124.5 44.415 0 -0.023303 0 1644.1)
(7093.7 44.406 0 -0.023027 0 1637)
(7063 44.397 0 -0.022896 0 1629.9)
(7032.2 44.389 0 -0.02378 0 1622.8)
(7001.4 44.381 0 -0.025468 0 1615.7)
(6970.7 44.375 0 -0.026095 0 1608.6)
(6939.9 44.369 0 -0.024093 0 1601.5)
(6909.2 44.361 0 -0.020034 0 1594.4)
(6878.5 44.352 0 -0.017448 0 1587.3)
(6847.7 44.34 0 -0.01924 0 1580.2)
(6817 44.325 0 -0.02038 0 1573.1)
(6786.2 44.309 0 -0.014055 0 1566.1)
(6755.5 44.285 0 0.0049769 0 1559)
(6724.7 44.246 0 0.031306 0 1551.9)
(6694.2 44.182 0 0.050181 0 1544.8)
(6663.7 44.077 0 0.071396 0 1537.8)
(6633.3 43.93 0 0.10915 0 1530.8)
(6603 43.752 0 0.13849 0 1523.8)
(6572.9 43.567 0 0.12879 0 1516.9)
(6542.9 43.417 0 0.071338 0 1509.9)
(6513 43.342 0 -0.019319 0 1503)
(6482.9 43.352 0 -0.095854 0 1496)
(6452.7 43.426 0 -0.11967 0 1489.1)
(6422.4 43.524 0 -0.10379 0 1482.1)
(6392.1 43.611 0 -0.082691 0 1475.1)
(6361.8 43.678 0 -0.074425 0 1468.1)
(6331.5 43.735 0 -0.072718 0 1461.1)
(6301.2 43.784 0 -0.069332 0 1454.1)
(6270.8 43.826 0 -0.064344 0 1447.1)
(6240.4 43.862 0 -0.059045 0 1440.1)
(6209.9 43.893 0 -0.054204 0 1433)
(6179.5 43.92 0 -0.050128 0 1426)
(6149 43.943 0 -0.046835 0 1419)
(6118.5 43.963 0 -0.044252 0 1412)
(6088 43.98 0 -0.042225 0 1404.9)
(6057.5 43.996 0 -0.0406 0 1397.9)
(6027 44.009 0 -0.039192 0 1390.8)
(5996.5 44.022 0 -0.037873 0 1383.8)
(5966 44.033 0 -0.036552 0 1376.8)
(5935.4 44.043 0 -0.035247 0 1369.7)
(5904.9 44.051 0 -0.034037 0 1362.7)
(5874.3 44.059 0 -0.033073 0 1355.6)
(5843.8 44.066 0 -0.032499 0 1348.6)
(5813.2 44.072 0 -0.032446 0 1341.5)
(5782.7 44.079 0 -0.032955 0 1334.5)
(5752.1 44.087 0 -0.033985 0 1327.4)
(5721.5 44.096 0 -0.035284 0 1320.3)
(5690.9 44.106 0 -0.036323 0 1313.3)
(5660.4 44.117 0 -0.036183 0 1306.2)
(5629.8 44.128 0 -0.033847 0 1299.2)
(5599.2 44.138 0 -0.029615 0 1292.1)
(5568.5 44.148 0 -0.026815 0 1285)
(5537.9 44.157 0 -0.027303 0 1278)
(5507.2 44.169 0 -0.028679 0 1270.9)
(5476.6 44.176 0 -0.02261 0 1263.8)
(5445.8 44.169 0 -0.0048016 0 1256.7)
(5415.2 44.134 0 0.025783 0 1249.7)
(5384.7 44.056 0 0.061505 0 1242.6)
(5354.4 43.935 0 0.093839 0 1235.7)
(5324 43.781 0 0.10758 0 1228.6)
(5293.9 43.631 0 0.078336 0 1221.7)
(5263.7 43.53 0 0.013737 0 1214.7)
(5233.7 43.515 0 -0.053626 0 1207.8)
(5203.3 43.566 0 -0.097186 0 1200.7)
(5173.1 43.658 0 -0.10744 0 1193.8)
(5142.6 43.75 0 -0.090551 0 1186.7)
(5112.2 43.826 0 -0.076681 0 1179.7)
(5081.7 43.895 0 -0.076941 0 1172.7)
(5051.2 43.958 0 -0.07691 0 1165.7)
(5020.7 44.016 0 -0.074824 0 1158.6)
(4990.1 44.072 0 -0.071724 0 1151.6)
(4959.5 44.124 0 -0.068557 0 1144.5)
(4928.9 44.173 0 -0.065758 0 1137.4)
(4898.2 44.22 0 -0.063471 0 1130.3)
(4867.5 44.264 0 -0.061678 0 1123.3)
(4836.8 44.308 0 -0.060339 0 1116.2)
(4806 44.35 0 -0.059381 0 1109.1)
(4775.3 44.392 0 -0.058761 0 1102)
(4744.4 44.433 0 -0.058418 0 1094.9)
(4713.6 44.475 0 -0.058326 0 1087.7)
(4682.7 44.516 0 -0.058441 0 1080.6)
(4651.8 44.558 0 -0.05875 0 1073.5)
(4620.9 44.601 0 -0.059222 0 1066.3)
(4589.9 44.645 0 -0.059849 0 1059.2)
(4559 44.689 0 -0.060608 0 1052.1)
(4527.9 44.735 0 -0.061499 0 1044.9)
(4496.9 44.781 0 -0.062502 0 1037.7)
(4465.8 44.83 0 -0.063621 0 1030.6)
(4434.7 44.879 0 -0.064838 0 1023.4)
(4403.5 44.931 0 -0.066159 0 1016.2)
(4372.3 44.984 0 -0.067571 0 1009)
(4341.1 45.039 0 -0.06908 0 1001.8)
(4309.8 45.096 0 -0.070672 0 994.56)
(4278.5 45.155 0 -0.072352 0 987.34)
(4247.2 45.216 0 -0.07411 0 980.1)
(4215.8 45.28 0 -0.075955 0 972.86)
(4184.4 45.346 0 -0.077877 0 965.6)
(4152.9 45.414 0 -0.079886 0 958.34)
(4121.3 45.485 0 -0.081971 0 951.06)
(4089.8 45.559 0 -0.084142 0 943.77)
(4058.1 45.635 0 -0.086388 0 936.47)
(4026.5 45.714 0 -0.088717 0 929.16)
(3994.7 45.796 0 -0.09112 0 921.84)
(3962.9 45.881 0 -0.093605 0 914.5)
(3931.1 45.969 0 -0.096163 0 907.15)
(3899.1 46.06 0 -0.098801 0 899.78)
(3867.2 46.155 0 -0.10151 0 892.4)
(3835.1 46.253 0 -0.1043 0 885)
(3803 46.354 0 -0.10716 0 877.59)
(3770.8 46.459 0 -0.11009 0 870.16)
(3738.5 46.568 0 -0.1131 0 862.72)
(3706.2 46.68 0 -0.11617 0 855.25)
(3673.8 46.796 0 -0.11932 0 847.77)
(3641.3 46.916 0 -0.12253 0 840.27)
(3608.7 47.04 0 -0.12581 0 832.75)
(3576.1 47.168 0 -0.12915 0 825.21)
(3543.3 47.299 0 -0.13255 0 817.65)
(3510.5 47.436 0 -0.13601 0 810.07)
(3477.5 47.576 0 -0.13953 0 802.47)
(3444.5 47.72 0 -0.1431 0 794.85)
(3411.3 47.869 0 -0.14672 0 787.2)
(3378.1 48.022 0 -0.15038 0 779.53)
(3344.8 48.18 0 -0.15409 0 771.83)
(3311.3 48.342 0 -0.15783 0 764.11)
(3277.7 48.509 0 -0.1616 0 756.36)
(3244 48.68 0 -0.1654 0 748.59)
(3210.2 48.856 0 -0.16922 0 740.79)
(3176.3 49.036 0 -0.17305 0 732.96)
(3142.3 49.221 0 -0.17689 0 725.1)
(3108.1 49.41 0 -0.18073 0 717.21)
(3073.8 49.605 0 -0.18455 0 709.29)
(3039.4 49.803 0 -0.18836 0 701.35)
(3004.8 50.006 0 -0.19214 0 693.37)
(2970.1 50.214 0 -0.19588 0 685.36)
(2935.2 50.426 0 -0.19957 0 677.31)
(2900.2 50.642 0 -0.2032 0 669.23)
(2865.1 50.863 0 -0.20675 0 661.12)
(2829.8 51.088 0 -0.21022 0 652.97)
(2794.3 51.317 0 -0.21358 0 644.79)
(2758.7 51.549 0 -0.21683 0 636.57)
(2722.9 51.786 0 -0.21994 0 628.32)
(2687 52.026 0 -0.22291 0 620.02)
(2650.9 52.27 0 -0.2257 0 611.69)
(2614.6 52.516 0 -0.22831 0 603.32)
(2578.2 52.766 0 -0.2307 0 594.92)
(2541.6 53.018 0 -0.23287 0 586.47)
(2504.8 53.273 0 -0.23478 0 577.99)
(2467.9 53.53 0 -0.23642 0 569.46)
(2430.8 53.789 0 -0.23775 0 560.89)
(2393.5 54.049 0 -0.23876 0 552.29)
(2356 54.309 0 -0.23941 0 543.64)
(2318.4 54.571 0 -0.23968 0 534.96)
(2280.6 54.832 0 -0.23954 0 526.23)
(2242.6 55.093 0 -0.23895 0 517.46)
(2204.4 55.353 0 -0.23788 0 508.66)
(2166.1 55.611 0 -0.2363 0 499.81)
(2127.6 55.868 0 -0.23417 0 490.92)
(2088.9 56.121 0 -0.23146 0 482)
(2050 56.37 0 -0.22813 0 473.03)
(2011 56.616 0 -0.22413 0 464.03)
(1971.8 56.856 0 -0.21944 0 454.99)
(1932.5 57.09 0 -0.21401 0 445.91)
(1893 57.317 0 -0.20779 0 436.8)
(1853.4 57.536 0 -0.20075 0 427.66)
(1813.6 57.747 0 -0.19283 0 418.48)
(1773.7 57.947 0 -0.184 0 409.27)
(1733.6 58.137 0 -0.17421 0 400.03)
(1693.5 58.314 0 -0.1634 0 390.77)
(1653.2 58.478 0 -0.15154 0 381.48)
(1612.8 58.628 0 -0.13858 0 372.16)
(1572.4 58.761 0 -0.12446 0 362.83)
(1531.8 58.877 0 -0.10914 0 353.47)
(1491.2 58.975 0 -0.092582 0 344.1)
(1450.5 59.052 0 -0.074723 0 334.72)
(1409.8 59.107 0 -0.055525 0 325.33)
(1369.1 59.139 0 -0.034939 0 315.94)
(1328.4 59.146 0 -0.012923 0 306.54)
(1287.6 59.126 0 0.01057 0 297.15)
(1246.9 59.078 0 0.035576 0 287.76)
(1206.3 58.999 0 0.06214 0 278.39)
(1165.7 58.889 0 0.090293 0 269.03)
(1125.2 58.744 0 0.12008 0 259.69)
(1084.8 58.564 0 0.15151 0 250.38)
(1044.6 58.346 0 0.18463 0 241.11)
(1004.6 58.088 0 0.21946 0 231.87)
(964.68 57.788 0 0.25601 0 222.68)
(925.04 57.445 0 0.29429 0 213.54)
(885.65 57.056 0 0.33432 0 204.46)
(846.54 56.619 0 0.37609 0 195.44)
(807.76 56.132 0 0.4196 0 186.5)
(769.32 55.594 0 0.46483 0 177.64)
(731.28 55.002 0 0.51176 0 168.87)
(693.65 54.355 0 0.56035 0 160.2)
(656.5 53.65 0 0.61057 0 151.64)
(619.84 52.886 0 0.66235 0 143.19)
(583.73 52.06 0 0.71565 0 134.87)
(548.2 51.172 0 0.77037 0 126.68)
(513.29 50.22 0 0.82644 0 118.64)
(479.06 49.202 0 0.88374 0 110.76)
(445.54 48.117 0 0.94216 0 103.03)
(412.78 46.963 0 1.0015 0 95.487)
(380.82 45.741 0 1.0618 0 88.127)
(349.72 44.448 0 1.1226 0 80.963)
(319.51 43.085 0 1.184 0 74.006)
(290.25 41.651 0 1.2455 0 67.267)
(261.98 40.146 0 1.3071 0 60.758)
(234.74 38.57 0 1.3684 0 54.487)
(208.59 36.924 0 1.4292 0 48.467)
(183.58 35.209 0 1.4891 0 42.707)
(159.73 33.426 0 1.5477 0 37.218)
(137.11 31.577 0 1.6047 0 32.01)
(115.74 29.665 0 1.6596 0 27.092)
(95.676 27.692 0 1.7119 0 22.474)
(76.949 25.662 0 1.7611 0 18.164)
(59.595 23.579 0 1.8065 0 14.17)
(43.645 21.448 0 1.8473 0 10.498)
(29.126 19.277 0 1.8828 0 7.1559)
(16.062 17.07 0 1.9121 0 4.1478)
(4.4687 14.838 0 1.9339 0 1.4775)
(-5.6416 12.589 0 1.9471 0 -0.85259)
(-14.266 10.336 0 1.9501 0 -2.842)
(-21.408 8.0904 0 1.9412 0 -4.4923)
(-27.082 5.8687 0 1.9182 0 -5.8071)
(-31.315 3.6882 0 1.8787 0 -6.7929)
(-34.144 1.57 0 1.8198 0 -7.4595)
(-35.624 -0.46134 0 1.7379 0 -7.8199)
(-35.826 -2.3767 0 1.6288 0 -7.8917)
(-34.843 -4.1411 0 1.487 0 -7.6975)
(-32.79 -5.713 0 1.3058 0 -7.2657)
(-29.814 -7.0423 0 1.0763 0 -6.6317)
(-26.089 -8.0696 0 0.78729 0 -5.8388)
(-21.828 -8.7244 0 0.42444 0 -4.9392)
(-17.279 -8.926 0 -0.028511 0 -3.9941)
(-12.725 -8.5854 0 -0.58474 0 -3.0715)
(-8.491 -7.6149 0 -1.2446 0 -2.2467)
(-4.9219 -5.932 0 -1.9778 0 -1.5922)
(-2.3083 -3.5089 0 -2.6546 0 -1.1453)
(-0.42775 -0.4125 0 -2.7776 0 -0.7397)
(16259 4415.8 0 3625.9 0 4588.9)
(17093 3602.1 0 2004.6 0 4407.2)
(16985 2799.9 0 1096 0 4172.5)
(16495 2156.9 0 671.23 0 3961.3)
(15913 1688.1 0 467.46 0 3780)
(15387 1356.6 0 350.79 0 3631.8)
(14956 1118 0 267.66 0 3513.1)
(14573 937.52 0 204.72 0 3410.2)
(14237 797.19 0 158.95 0 3322.2)
(13943 686.15 0 125.62 0 3246.6)
(13684 597.03 0 100.89 0 3181.1)
(13455 524.58 0 82.175 0 3123.9)
(13251 465 0 67.76 0 3073.5)
(13068 415.46 0 56.478 0 3028.6)
(12903 373.88 0 47.524 0 2988.5)
(12753 338.68 0 40.33 0 2952.3)
(12617 308.66 0 34.486 0 2919.6)
(12492 282.86 0 29.69 0 2889.7)
(12377 260.55 0 25.719 0 2862.2)
(12271 241.16 0 22.402 0 2837)
(12173 224.21 0 19.611 0 2813.6)
(12081 209.32 0 17.247 0 2791.9)
(11995 196.19 0 15.231 0 2771.6)
(11915 184.57 0 13.501 0 2752.6)
(11839 174.23 0 12.01 0 2734.8)
(11767 165.02 0 10.717 0 2717.9)
(11699 156.78 0 9.5912 0 2702)
(11634 149.39 0 8.6066 0 2686.8)
(11573 142.74 0 7.7418 0 2672.4)
(11514 136.75 0 6.9793 0 2658.6)
(11457 131.34 0 6.3047 0 2645.5)
(11403 126.44 0 5.7059 0 2632.8)
(11351 121.99 0 5.1727 0 2620.7)
(11301 117.95 0 4.697 0 2609)
(11252 114.28 0 4.2716 0 2597.7)
(11205 110.93 0 3.8907 0 2586.7)
(11160 107.87 0 3.5493 0 2576.1)
(11115 105.08 0 3.2429 0 2565.8)
(11072 102.52 0 2.9678 0 2555.7)
(11030 100.17 0 2.7205 0 2546)
(10989 98.011 0 2.4975 0 2536.4)
(10948 96.025 0 2.2957 0 2527.1)
(10909 94.196 0 2.1121 0 2517.9)
(10870 92.51 0 1.9437 0 2509)
(10832 90.955 0 1.7882 0 2500.2)
(10795 89.522 0 1.6433 0 2491.6)