/*--------------------------------*- C++ -*----------------------------------*\
| =========                 |                                                 |
| \\      /  F ield         | OpenFOAM: The Open Source CFD Toolbox           |
|  \\    /   O peration     | Version:  5.x                                   |
|   \\  /    A nd           | Web:      www.OpenFOAM.org                      |
|    \\/     M anipulation  |                                                 |
\*---------------------------------------------------------------------------*/
FoamFile
{
    version     2.0;
    format      ascii;
    class       volScalarField;
    location    "55";
    object      gamma;
}
// * * * * * * * * * * * * * * * * * * * * * * * * * * * * * * * * * * * * * //

dimensions      [0 0 0 0 0 0 0];

internalField   nonuniform List<scalar> 
80000
(
1
1
1
1
1
1
1
1
1
1
1
1
1
1
1
1
1
1
1
1
1
1
1
1
1
1
1
1
1
1
1
1
1
1
1
1
1
1
1
1
1
1
1
1
1
1
1
1
1
1
1
1
1
1
1
1
1
1
1
1
1
1
1
1
1
1
1
1
1
1
1
1
1
1
1
1
1
1
1
1
1
1
1
1
1
1
1
1
1
1
1
1
1
1
1
1
1
1
1
1
1
0.99999
0.99999
0.99999
0.99999
0.99999
0.99999
0.99999
0.99999
0.99999
0.99999
0.99999
0.99999
0.99999
0.99999
0.99999
0.99999
0.99999
0.99999
0.99999
0.99999
0.99999
0.99999
0.99999
0.99999
0.99999
0.99999
0.99999
0.99999
0.99999
0.99999
0.99999
0.99999
0.99999
0.99999
0.99999
0.99999
0.99999
0.99999
0.99999
0.99999
0.99999
0.99999
0.99999
0.99999
0.99999
0.99999
0.99999
0.99999
0.99999
0.99999
0.99999
0.99999
0.99999
0.99999
0.99999
0.99999
0.99999
0.99999
0.99999
0.99999
0.99999
0.99999
0.99999
0.99999
0.99999
0.99999
0.99999
0.99999
0.99999
0.99999
0.99999
0.99999
0.99999
0.99999
0.99999
0.99999
0.99999
0.99999
0.99999
0.99999
0.99999
0.99999
0.99999
0.99999
0.99999
0.99999
0.99999
0.99999
0.99999
0.99999
0.99999
0.99999
0.99999
0.99999
0.99999
0.99999
0.99999
0.99999
0.99999
0.99999
0.99999
0.99999
0.99999
0.99999
0.99999
0.99999
0.99999
0.99999
0.99999
0.99999
0.99999
0.99999
0.99999
0.99999
0.99999
0.99999
0.99999
0.99999
0.99999
0.99999
0.99999
0.99999
0.99999
0.99999
0.99999
0.99999
0.99999
0.99999
0.99999
0.99999
0.99999
0.99999
0.99999
0.99999
0.99999
0.99999
0.99999
0.99999
0.99999
0.99999
0.99999
0.99999
0.99999
0.99999
0.99999
0.99999
0.99998
0.99998
0.99998
0.99998
0.99998
0.99997
0.99996
0.99994
0.99989
0.99983
0.99976
0.99968
0.99949
0.99862
0.9924
0.92733
0.20611
0.0050891
0.00028818
4.174e-05
9.9719e-06
3.8074e-06
2.1971e-06
2.3677e-06
4.249e-06
1.0931e-05
2.7249e-05
5.3476e-05
6.771e-05
6.5395e-05
6.677e-05
9.8547e-05
0.00017514
0.00036798
0.00057285
0.0007798
0.00086585
0.00061373
0.00036428
0.00017724
0.00011393
0.00010288
0.00013778
0.00014751
0.00014546
0.00014117
0.00013724
0.00013361
0.00013123
0.00013011
0.00012945
0.0001293
0.00012832
0.00012677
0.00012472
0.00012253
0.00012078
0.00011953
0.00011863
0.00011825
0.00011765
0.00011566
0.00011207
0.00010755
0.00010621
0.00011681
0.00015828
0.00020699
0.00012892
5.9504e-05
2.1739e-05
1.1499e-05
9.5651e-06
1.3201e-05
1.413e-05
1.3737e-05
1.3224e-05
1.2902e-05
1.2716e-05
1.255e-05
1.2377e-05
1.2201e-05
1.2029e-05
1.1861e-05
1.1697e-05
1.1537e-05
1.1381e-05
1.1229e-05
1.1079e-05
1.0933e-05
1.079e-05
1.065e-05
1.0513e-05
1.0379e-05
1.0248e-05
1.012e-05
9.9946e-06
9.8727e-06
9.7541e-06
9.6387e-06
9.5266e-06
9.418e-06
9.3129e-06
9.2114e-06
9.1136e-06
9.0196e-06
8.9296e-06
8.8435e-06
8.7614e-06
8.6835e-06
8.6098e-06
8.5402e-06
8.475e-06
8.4139e-06
8.3571e-06
8.3046e-06
8.2562e-06
8.2119e-06
8.1717e-06
8.1354e-06
8.1029e-06
8.0741e-06
8.0487e-06
8.0267e-06
8.0078e-06
7.9918e-06
7.9786e-06
7.9677e-06
7.9591e-06
7.9525e-06
7.9476e-06
7.9442e-06
7.942e-06
7.9408e-06
7.9405e-06
7.9407e-06
7.9412e-06
7.942e-06
7.9429e-06
7.9445e-06
7.9469e-06
7.948e-06
7.9388e-06
7.9112e-06
7.9039e-06
8.0106e-06
8.307e-06
8.4405e-06
7.0611e-06
5.8944e-06
6.6922e-06
7.8849e-06
1.1218e-05
1
1
1
1
1
1
1
1
1
1
1
1
1
1
1
1
1
1
1
1
1
1
1
1
1
1
1
1
1
1
1
1
1
1
1
1
1
1
1
1
1
1
1
1
1
1
1
1
1
1
1
1
1
1
1
1
1
1
1
1
1
1
1
1
1
1
1
1
1
1
1
1
1
1
1
1
1
1
1
1
1
1
1
1
1
1
1
1
1
1
1
1
1
1
1
1
1
1
1
1
0.99999
0.99999
0.99999
0.99999
0.99999
0.99999
0.99999
0.99999
0.99999
0.99999
0.99999
0.99999
0.99999
0.99999
0.99999
0.99999
0.99999
0.99999
0.99999
0.99999
0.99999
0.99999
0.99999
0.99999
0.99999
0.99999
0.99999
0.99999
0.99999
0.99999
0.99999
0.99999
0.99999
0.99999
0.99999
0.99999
0.99999
0.99999
0.99999
0.99999
0.99999
0.99999
0.99999
0.99999
0.99999
0.99999
0.99999
0.99999
0.99999
0.99999
0.99999
0.99999
0.99999
0.99999
0.99999
0.99999
0.99999
0.99999
0.99999
0.99999
0.99999
0.99999
0.99999
0.99999
0.99999
0.99999
0.99999
0.99999
0.99999
0.99999
0.99999
0.99999
0.99999
0.99999
0.99999
0.99999
0.99999
0.99999
0.99999
0.99999
0.99999
0.99999
0.99999
0.99999
0.99999
0.99999
0.99999
0.99999
0.99999
0.99999
0.99999
0.99999
0.99999
0.99999
0.99999
0.99999
0.99999
0.99999
0.99999
0.99999
0.99999
0.99999
0.99999
0.99999
0.99999
0.99999
0.99999
0.99999
0.99999
0.99999
0.99999
0.99999
0.99999
0.99999
0.99999
0.99999
0.99999
0.99999
0.99999
0.99999
0.99999
0.99999
0.99999
0.99999
0.99999
0.99999
0.99999
0.99999
0.99999
0.99999
0.99999
0.99999
0.99999
0.99999
0.99999
0.99999
0.99999
0.99999
0.99999
0.99999
0.99999
0.99999
0.99999
0.99999
0.99999
0.99999
0.99999
0.99999
0.99999
0.99998
0.99998
0.99998
0.99998
0.99997
0.99996
0.99994
0.9999
0.99985
0.99976
0.99961
0.99911
0.99702
0.98575
0.91944
0.57733
0.064368
0.0083962
0.0011537
0.00018167
3.5794e-05
1.2247e-05
7.3873e-06
7.6187e-06
1.001e-05
1.362e-05
1.8565e-05
2.7871e-05
4.9656e-05
0.00010965
0.00025537
0.00043298
0.00059334
0.00066287
0.00058455
0.00036324
0.00020263
0.00010748
8.2414e-05
8.4336e-05
0.00010853
0.00011454
0.00011238
0.00010861
0.00010552
0.00010321
0.00010187
0.00010122
0.00010088
0.00010003
9.8811e-05
9.7364e-05
9.5715e-05
9.4091e-05
9.2929e-05
9.2054e-05
9.1519e-05
9.0922e-05
9.0032e-05
8.8005e-05
8.5052e-05
8.2268e-05
8.3924e-05
9.8012e-05
0.00011544
0.00011036
5.8909e-05
2.5983e-05
1.0903e-05
7.3915e-06
7.2637e-06
9.5979e-06
1.0089e-05
9.7704e-06
9.4118e-06
9.1897e-06
9.0565e-06
8.9363e-06
8.8118e-06
8.6859e-06
8.5626e-06
8.4428e-06
8.3262e-06
8.2126e-06
8.1015e-06
7.9929e-06
7.8867e-06
7.7827e-06
7.6809e-06
7.5813e-06
7.4838e-06
7.3884e-06
7.2952e-06
7.204e-06
7.115e-06
7.0282e-06
6.9436e-06
6.8612e-06
6.7812e-06
6.7036e-06
6.6285e-06
6.5558e-06
6.4858e-06
6.4184e-06
6.3537e-06
6.2918e-06
6.2327e-06
6.1765e-06
6.1232e-06
6.0729e-06
6.0256e-06
5.9812e-06
5.9398e-06
5.9013e-06
5.8658e-06
5.8332e-06
5.8034e-06
5.7763e-06
5.752e-06
5.7302e-06
5.7108e-06
5.6939e-06
5.6791e-06
5.6664e-06
5.6556e-06
5.6466e-06
5.6392e-06
5.6332e-06
5.6285e-06
5.625e-06
5.6223e-06
5.6205e-06
5.6193e-06
5.6187e-06
5.6184e-06
5.6183e-06
5.6185e-06
5.6192e-06
5.6207e-06
5.6213e-06
5.6145e-06
5.5943e-06
5.5894e-06
5.6681e-06
5.8851e-06
5.9802e-06
4.9678e-06
4.127e-06
4.729e-06
5.5684e-06
7.8849e-06
1
1
1
1
1
1
1
1
1
1
1
1
1
1
1
1
1
1
1
1
1
1
1
1
1
1
1
1
1
1
1
1
1
1
1
1
1
1
1
1
1
1
1
1
1
1
1
1
1
1
1
1
1
1
1
1
1
1
1
1
1
1
1
1
1
1
1
1
1
1
1
1
1
1
1
1
1
1
1
1
1
1
1
1
1
1
1
1
1
1
1
1
1
1
1
1
1
0.99999
0.99999
0.99999
0.99999
0.99999
0.99999
0.99999
0.99999
0.99999
0.99999
0.99999
0.99999
0.99999
0.99999
0.99999
0.99999
0.99999
0.99999
0.99999
0.99999
0.99999
0.99999
0.99999
0.99999
0.99999
0.99999
0.99999
0.99999
0.99999
0.99999
0.99999
0.99999
0.99999
0.99999
0.99999
0.99999
0.99999
0.99999
0.99999
0.99999
0.99999
0.99999
0.99999
0.99999
0.99999
0.99999
0.99999
0.99999
0.99999
0.99999
0.99999
0.99999
0.99999
0.99999
0.99999
0.99999
0.99999
0.99999
0.99999
0.99999
0.99999
0.99999
0.99999
0.99999
0.99999
0.99999
0.99999
0.99999
0.99999
0.99999
0.99999
0.99999
0.99999
0.99999
0.99999
0.99999
0.99999
0.99999
0.99999
0.99999
0.99999
0.99999
0.99999
0.99999
0.99999
0.99999
0.99999
0.99999
0.99999
0.99999
0.99999
0.99999
0.99999
0.99999
0.99999
0.99999
0.99999
0.99999
0.99999
0.99999
0.99999
0.99999
0.99999
0.99999
0.99999
0.99999
0.99999
0.99999
0.99999
0.99999
0.99999
0.99999
0.99999
0.99999
0.99999
0.99999
0.99999
0.99999
0.99999
0.99999
0.99999
0.99999
0.99999
0.99999
0.99999
0.99999
0.99999
0.99999
0.99999
0.99999
0.99999
0.99999
0.99999
0.99999
0.99999
0.99999
0.99999
0.99999
0.99999
0.99999
0.99999
0.99999
0.99999
0.99999
0.99999
0.99999
0.99999
0.99999
0.99999
0.99999
0.99999
0.99999
0.99998
0.99998
0.99998
0.99998
0.99998
0.99997
0.99996
0.99994
0.99991
0.99987
0.99981
0.99967
0.99929
0.9978
0.99195
0.97197
0.91496
0.77216
0.29253
0.031174
0.0027565
0.0003346
6.2783e-05
1.9786e-05
9.0163e-06
6.2537e-06
7.0908e-06
1.3022e-05
3.4631e-05
0.00011484
0.0002822
0.00049222
0.00060629
0.00054628
0.00038715
0.00021628
0.00011314
7.9547e-05
7.3059e-05
8.1675e-05
9.8953e-05
0.00010225
9.9419e-05
9.5988e-05
9.3481e-05
9.1869e-05
9.1003e-05
9.059e-05
8.9784e-05
8.8658e-05
8.732e-05
8.5873e-05
8.4489e-05
8.3213e-05
8.2321e-05
8.1585e-05
8.1048e-05
8.0296e-05
7.9125e-05
7.6902e-05
7.4247e-05
7.3113e-05
7.8367e-05
9.9206e-05
9.9863e-05
7.2743e-05
3.3405e-05
1.2937e-05
6.7934e-06
6.0161e-06
6.7378e-06
8.3422e-06
8.5552e-06
8.2566e-06
7.9719e-06
7.7972e-06
7.6861e-06
7.5834e-06
7.4776e-06
7.3713e-06
7.2675e-06
7.1669e-06
7.0692e-06
6.9739e-06
6.8809e-06
6.7899e-06
6.701e-06
6.614e-06
6.5288e-06
6.4454e-06
6.3638e-06
6.2839e-06
6.2057e-06
6.1293e-06
6.0546e-06
5.9817e-06
5.9107e-06
5.8414e-06
5.7741e-06
5.7087e-06
5.6453e-06
5.584e-06
5.5248e-06
5.4677e-06
5.4128e-06
5.3603e-06
5.31e-06
5.2621e-06
5.2166e-06
5.1735e-06
5.1328e-06
5.0946e-06
5.0588e-06
5.0254e-06
4.9945e-06
4.9659e-06
4.9396e-06
4.9157e-06
4.8939e-06
4.8743e-06
4.8567e-06
4.8411e-06
4.8273e-06
4.8153e-06
4.8048e-06
4.7959e-06
4.7883e-06
4.782e-06
4.7768e-06
4.7726e-06
4.7692e-06
4.7666e-06
4.7647e-06
4.7632e-06
4.7622e-06
4.7615e-06
4.7611e-06
4.7613e-06
4.7623e-06
4.7625e-06
4.7566e-06
4.7392e-06
4.735e-06
4.8031e-06
4.99e-06
5.0718e-06
4.2007e-06
3.4764e-06
4.001e-06
4.729e-06
6.6922e-06
1
1
1
1
1
1
1
1
1
1
1
1
1
1
1
1
1
1
1
1
1
1
1
1
1
1
1
1
1
1
1
1
1
1
1
1
1
1
1
1
1
1
1
1
1
1
1
1
1
1
1
1
1
1
1
1
1
1
1
1
1
1
1
1
1
1
1
1
1
1
1
1
1
1
1
1
1
1
1
1
1
1
1
1
1
1
1
1
1
1
1
1
1
1
0.99999
0.99999
0.99999
0.99999
0.99999
0.99999
0.99999
0.99999
0.99999
0.99999
0.99999
0.99999
0.99999
0.99999
0.99999
0.99999
0.99999
0.99999
0.99999
0.99999
0.99999
0.99999
0.99999
0.99999
0.99999
0.99999
0.99999
0.99999
0.99999
0.99999
0.99999
0.99999
0.99999
0.99999
0.99999
0.99999
0.99999
0.99999
0.99999
0.99999
0.99999
0.99999
0.99999
0.99999
0.99999
0.99999
0.99999
0.99999
0.99999
0.99999
0.99999
0.99999
0.99999
0.99999
0.99999
0.99999
0.99999
0.99999
0.99999
0.99999
0.99999
0.99999
0.99999
0.99999
0.99999
0.99999
0.99999
0.99999
0.99999
0.99999
0.99999
0.99999
0.99999
0.99999
0.99999
0.99999
0.99999
0.99999
0.99999
0.99999
0.99999
0.99999
0.99999
0.99999
0.99999
0.99999
0.99999
0.99999
0.99999
0.99999
0.99999
0.99999
0.99999
0.99999
0.99999
0.99999
0.99999
0.99999
0.99999
0.99999
0.99999
0.99999
0.99999
0.99999
0.99999
0.99999
0.99999
0.99999
0.99999
0.99999
0.99999
0.99999
0.99999
0.99999
0.99999
0.99999
0.99999
0.99999
0.99999
0.99999
0.99999
0.99999
0.99999
0.99999
0.99999
0.99999
0.99999
0.99999
0.99999
0.99999
0.99999
0.99999
0.99999
0.99999
0.99999
0.99999
0.99999
0.99999
0.99999
0.99999
0.99999
0.99999
0.99999
0.99999
0.99999
0.99999
0.99999
0.99999
0.99999
0.99999
0.99999
0.99999
0.99999
0.99998
0.99998
0.99998
0.99998
0.99998
0.99998
0.99998
0.99998
0.99997
0.99997
0.99995
0.99993
0.99992
0.9999
0.99988
0.99982
0.9997
0.99941
0.99873
0.99701
0.99008
0.94954
0.66222
0.042128
0.0022215
0.00019187
2.9311e-05
8.2879e-06
5.2778e-06
7.7263e-06
2.2951e-05
7.8807e-05
0.00022789
0.0004166
0.00046372
0.00035113
0.00020762
0.00010708
7.3241e-05
6.5431e-05
7.1237e-05
8.4271e-05
9.3558e-05
9.3353e-05
8.9847e-05
8.6749e-05
8.4749e-05
8.3737e-05
8.3366e-05
8.2796e-05
8.1692e-05
8.0348e-05
7.886e-05
7.7501e-05
7.6409e-05
7.5439e-05
7.477e-05
7.4197e-05
7.3456e-05
7.2536e-05
7.1016e-05
6.8521e-05
6.6208e-05
6.7267e-05
7.7903e-05
9.2719e-05
7.04e-05
3.6331e-05
1.35e-05
6.4341e-06
4.5622e-06
5.3559e-06
6.6508e-06
7.4969e-06
7.436e-06
7.1529e-06
6.9344e-06
6.8002e-06
6.7057e-06
6.6151e-06
6.5224e-06
6.4302e-06
6.3405e-06
6.2537e-06
6.1695e-06
6.0875e-06
6.0075e-06
5.9294e-06
5.8531e-06
5.7784e-06
5.7053e-06
5.6337e-06
5.5637e-06
5.4951e-06
5.428e-06
5.3623e-06
5.2981e-06
5.2353e-06
5.1741e-06
5.1144e-06
5.0563e-06
4.9997e-06
4.9448e-06
4.8917e-06
4.8402e-06
4.7906e-06
4.7427e-06
4.6968e-06
4.6527e-06
4.6107e-06
4.5705e-06
4.5324e-06
4.4964e-06
4.4623e-06
4.4303e-06
4.4003e-06
4.3723e-06
4.3463e-06
4.3222e-06
4.3001e-06
4.2798e-06
4.2612e-06
4.2445e-06
4.2293e-06
4.2158e-06
4.2037e-06
4.193e-06
4.1836e-06
4.1754e-06
4.1684e-06
4.1623e-06
4.1572e-06
4.1529e-06
4.1493e-06
4.1464e-06
4.144e-06
4.1422e-06
4.1407e-06
4.1396e-06
4.1392e-06
4.1396e-06
4.1395e-06
4.1341e-06
4.1186e-06
4.1151e-06
4.1755e-06
4.3404e-06
4.4119e-06
3.6429e-06
3.0061e-06
3.4764e-06
4.127e-06
5.8945e-06
1
1
1
1
1
1
1
1
1
1
1
1
1
1
1
1
1
1
1
1
1
1
1
1
1
1
1
1
1
1
1
1
1
1
1
1
1
1
1
1
1
1
1
1
1
1
1
1
1
1
1
1
1
1
1
1
1
1
1
1
1
1
1
1
1
1
1
1
1
1
1
1
1
1
1
1
1
1
1
1
1
1
1
1
1
1
1
1
0.99999
0.99999
0.99999
0.99999
0.99999
0.99999
0.99999
0.99999
0.99999
0.99999
0.99999
0.99999
0.99999
0.99999
0.99999
0.99999
0.99999
0.99999
0.99999
0.99999
0.99999
0.99999
0.99999
0.99999
0.99999
0.99999
0.99999
0.99999
0.99999
0.99999
0.99999
0.99999
0.99999
0.99999
0.99999
0.99999
0.99999
0.99999
0.99999
0.99999
0.99999
0.99999
0.99999
0.99999
0.99999
0.99999
0.99999
0.99999
0.99999
0.99999
0.99999
0.99999
0.99999
0.99999
0.99999
0.99999
0.99999
0.99999
0.99999
0.99999
0.99999
0.99999
0.99999
0.99999
0.99999
0.99999
0.99999
0.99999
0.99999
0.99999
0.99999
0.99999
0.99999
0.99999
0.99999
0.99999
0.99999
0.99999
0.99999
0.99999
0.99999
0.99999
0.99999
0.99999
0.99999
0.99999
0.99999
0.99999
0.99999
0.99999
0.99999
0.99999
0.99999
0.99999
0.99999
0.99999
0.99999
0.99999
0.99999
0.99999
0.99999
0.99999
0.99999
0.99999
0.99999
0.99999
0.99999
0.99999
0.99999
0.99999
0.99999
0.99999
0.99999
0.99999
0.99999
0.99999
0.99999
0.99999
0.99999
0.99999
0.99999
0.99999
0.99999
0.99999
0.99999
0.99999
0.99999
0.99999
0.99999
0.99999
0.99999
0.99999
0.99999
0.99999
0.99999
0.99999
0.99999
0.99999
0.99999
0.99999
0.99999
0.99999
0.99999
0.99999
0.99999
0.99999
0.99999
0.99999
0.99998
0.99998
0.99998
0.99998
0.99998
0.99998
0.99998
0.99998
0.99998
0.99998
0.99998
0.99998
0.99998
0.99997
0.99997
0.99997
0.99997
0.99997
0.99997
0.99997
0.99997
0.99997
0.99996
0.99996
0.99996
0.99997
0.99997
0.99996
0.99995
0.99993
0.99989
0.99978
0.9991
0.99438
0.95918
0.67932
0.037923
0.0020011
0.00015428
2.5685e-05
1.5449e-05
2.1264e-05
4.6521e-05
0.00010241
0.00016461
0.00018393
0.00015284
9.6155e-05
7.3508e-05
6.9799e-05
7.86e-05
9.5942e-05
0.00011144
0.00011351
0.00010963
0.00010456
0.00010108
9.9108e-05
9.8394e-05
9.7699e-05
9.6762e-05
9.5013e-05
9.3193e-05
9.1563e-05
9.0317e-05
8.9279e-05
8.8364e-05
8.7601e-05
8.6621e-05
8.5563e-05
8.4341e-05
8.222e-05
7.9042e-05
7.6754e-05
8.107e-05
0.00010201
0.00010266
5.8927e-05
2.3902e-05
8.7861e-06
4.9107e-06
4.9728e-06
7.1862e-06
8.9863e-06
9.238e-06
8.8962e-06
8.5511e-06
8.3318e-06
8.1931e-06
8.0824e-06
7.9727e-06
7.8617e-06
7.7523e-06
7.6462e-06
7.5435e-06
7.4438e-06
7.3468e-06
7.2522e-06
7.1599e-06
7.0698e-06
6.9817e-06
6.8956e-06
6.8112e-06
6.7286e-06
6.6478e-06
6.5687e-06
6.4912e-06
6.4154e-06
6.3414e-06
6.269e-06
6.1984e-06
6.1296e-06
6.0626e-06
5.9975e-06
5.9343e-06
5.8731e-06
5.8139e-06
5.7568e-06
5.7018e-06
5.649e-06
5.5984e-06
5.55e-06
5.5039e-06
5.4601e-06
5.4186e-06
5.3795e-06
5.3426e-06
5.308e-06
5.2757e-06
5.2456e-06
5.2177e-06
5.1919e-06
5.1682e-06
5.1464e-06
5.1266e-06
5.1086e-06
5.0924e-06
5.0777e-06
5.0647e-06
5.0531e-06
5.0428e-06
5.0338e-06
5.0259e-06
5.0191e-06
5.0133e-06
5.0084e-06
5.0042e-06
5.0008e-06
4.998e-06
4.9958e-06
4.9945e-06
4.9944e-06
4.9938e-06
4.9869e-06
4.9683e-06
4.9639e-06
5.0356e-06
5.2315e-06
5.3168e-06
4.4036e-06
3.6429e-06
4.2007e-06
4.9678e-06
7.0611e-06
1
1
1
1
1
1
1
1
1
1
1
1
1
1
1
1
1
1
1
1
1
1
1
1
1
1
1
1
1
1
1
1
1
1
1
1
1
1
1
1
1
1
1
1
1
1
1
1
1
1
1
1
1
1
1
1
1
1
1
1
1
1
1
1
1
1
1
1
1
1
1
1
1
1
1
1
1
1
1
1
1
1
1
0.99999
0.99999
0.99999
0.99999
0.99999
0.99999
0.99999
0.99999
0.99999
0.99999
0.99998
0.99998
0.99999
0.99999
0.99999
0.99999
0.99999
0.99999
0.99999
0.99999
0.99999
0.99999
0.99999
0.99999
0.99999
0.99999
0.99999
0.99999
0.99999
0.99999
0.99999
0.99999
0.99999
0.99999
0.99999
0.99999
0.99999
0.99999
0.99999
0.99999
0.99999
0.99999
0.99999
0.99999
0.99999
0.99999
0.99999
0.99999
0.99999
0.99999
0.99999
0.99999
0.99999
0.99999
0.99999
0.99999
0.99999
0.99999
0.99999
0.99999
0.99999
0.99999
0.99999
0.99999
0.99999
0.99999
0.99999
0.99999
0.99999
0.99999
0.99999
0.99999
0.99999
0.99999
0.99999
0.99999
0.99999
0.99999
0.99999
0.99999
0.99999
0.99999
0.99999
0.99999
0.99999
0.99999
0.99999
0.99999
0.99999
0.99999
0.99999
0.99999
0.99999
0.99999
0.99999
0.99999
0.99999
0.99999
0.99999
0.99999
0.99999
0.99999
0.99999
0.99999
0.99999
0.99999
0.99999
0.99999
0.99999
0.99999
0.99999
0.99999
0.99999
0.99999
0.99999
0.99999
0.99999
0.99999
0.99999
0.99999
0.99999
0.99999
0.99999
0.99999
0.99999
0.99999
0.99999
0.99999
0.99999
0.99999
0.99999
0.99999
0.99999
0.99999
0.99999
0.99999
0.99999
0.99999
0.99998
0.99998
0.99998
0.99998
0.99998
0.99998
0.99998
0.99998
0.99998
0.99998
0.99998
0.99998
0.99998
0.99998
0.99998
0.99998
0.99998
0.99998
0.99998
0.99998
0.99998
0.99997
0.99997
0.99997
0.99997
0.99997
0.99997
0.99997
0.99997
0.99996
0.99996
0.99996
0.99996
0.99996
0.99997
0.99997
0.99997
0.99997
0.99997
0.99998
0.99998
0.99998
0.99999
0.99999
0.99998
0.99998
0.99998
0.99994
0.99982
0.99916
0.99478
0.95645
0.6332
0.024832
0.0011406
0.00014902
5.385e-05
4.0047e-05
3.7084e-05
3.6585e-05
3.5546e-05
3.3163e-05
3.7254e-05
5.1756e-05
7.7007e-05
0.00010923
0.00013569
0.00014104
0.00013656
0.00012958
0.00012304
0.00011914
0.000117
0.00011588
0.00011464
0.00011318
0.00011069
0.00010841
0.00010682
0.0001056
0.00010463
0.00010383
0.0001028
0.00010141
0.00010008
9.8602e-05
9.5877e-05
9.1987e-05
8.9951e-05
9.8301e-05
0.00013243
0.00010549
4.823e-05
1.6711e-05
7.6513e-06
5.2285e-06
7.3797e-06
1.084e-05
1.1822e-05
1.1397e-05
1.0771e-05
1.0354e-05
1.0115e-05
9.9536e-06
9.8125e-06
9.6738e-06
9.5373e-06
9.4048e-06
9.2766e-06
9.1522e-06
9.0313e-06
8.9134e-06
8.7986e-06
8.6866e-06
8.5774e-06
8.4707e-06
8.3664e-06
8.2644e-06
8.1646e-06
8.0669e-06
7.9714e-06
7.8779e-06
7.7864e-06
7.697e-06
7.6097e-06
7.5244e-06
7.4413e-06
7.3603e-06
7.2815e-06
7.205e-06
7.1308e-06
7.059e-06
6.9897e-06
6.9228e-06
6.8584e-06
6.7966e-06
6.7375e-06
6.681e-06
6.6271e-06
6.576e-06
6.5275e-06
6.4817e-06
6.4386e-06
6.3981e-06
6.3603e-06
6.3249e-06
6.2921e-06
6.2617e-06
6.2336e-06
6.2077e-06
6.1841e-06
6.1625e-06
6.1428e-06
6.125e-06
6.109e-06
6.0947e-06
6.0819e-06
6.0705e-06
6.0605e-06
6.0518e-06
6.0442e-06
6.0377e-06
6.0321e-06
6.0275e-06
6.0237e-06
6.0213e-06
6.0203e-06
6.0189e-06
6.0101e-06
5.9876e-06
5.9821e-06
6.0668e-06
6.2991e-06
6.4003e-06
5.3168e-06
4.4119e-06
5.0718e-06
5.9802e-06
8.4405e-06
1
1
1
1
1
1
1
1
1
1
1
1
1
1
1
1
1
1
1
1
1
1
1
1
1
1
1
1
1
1
1
1
1
1
1
1
1
1
1
1
1
1
1
1
1
1
1
1
1
1
1
1
1
1
1
1
1
1
1
1
1
1
1
1
0.99999
0.99999
0.99999
0.99999
1
1
1
1
1
1
1
1
1
1
1
0.99999
0.99999
0.99999
0.99999
0.99999
0.99999
0.99999
0.99999
0.99998
0.99998
0.99998
0.99998
0.99998
0.99998
0.99999
0.99999
0.99999
0.99999
0.99999
0.99999
0.99999
0.99999
0.99999
0.99999
0.99999
0.99999
0.99999
0.99999
0.99999
0.99999
0.99999
0.99999
0.99999
0.99999
0.99999
0.99999
0.99999
0.99999
0.99999
0.99999
0.99999
0.99999
0.99999
0.99999
0.99999
0.99999
0.99999
0.99999
0.99999
0.99999
0.99999
0.99999
0.99999
0.99999
0.99999
0.99999
0.99999
0.99999
0.99999
0.99999
0.99999
0.99999
0.99999
0.99999
0.99999
0.99999
0.99999
0.99999
0.99999
0.99999
0.99999
0.99999
0.99999
0.99999
0.99999
0.99999
0.99999
0.99999
0.99999
0.99999
0.99999
0.99999
0.99999
0.99999
0.99999
0.99999
0.99999
0.99999
0.99999
0.99999
0.99999
0.99999
0.99999
0.99999
0.99999
0.99999
0.99999
0.99999
0.99999
0.99999
0.99999
0.99999
0.99999
0.99999
0.99999
0.99999
0.99999
0.99999
0.99999
0.99999
0.99999
0.99999
0.99999
0.99999
0.99999
0.99999
0.99999
0.99999
0.99999
0.99999
0.99999
0.99999
0.99999
0.99999
0.99999
0.99999
0.99999
0.99999
0.99999
0.99999
0.99999
0.99999
0.99999
0.99999
0.99999
0.99999
0.99999
0.99999
0.99999
0.99998
0.99998
0.99998
0.99998
0.99998
0.99998
0.99998
0.99998
0.99998
0.99998
0.99998
0.99998
0.99998
0.99998
0.99998
0.99998
0.99998
0.99998
0.99997
0.99997
0.99997
0.99997
0.99997
0.99997
0.99997
0.99997
0.99997
0.99997
0.99996
0.99996
0.99996
0.99996
0.99996
0.99996
0.99996
0.99996
0.99996
0.99996
0.99997
0.99997
0.99997
0.99998
0.99998
0.99998
0.99998
0.99999
0.99999
0.99999
0.99999
0.99999
0.99999
0.99998
0.99995
0.9998
0.99889
0.99165
0.92282
0.26278
0.0099146
0.00075342
0.00012113
3.1214e-05
1.3323e-05
6.9594e-06
6.649e-06
1.0348e-05
2.2587e-05
5.1107e-05
9.1708e-05
0.00012282
0.00013532
0.00013603
0.00013158
0.00012614
0.00012244
0.00011962
0.00011768
0.00011586
0.00011406
0.0001114
0.00010922
0.00010767
0.00010652
0.00010572
0.0001047
0.00010344
0.0001019
0.00010062
9.9275e-05
9.6551e-05
9.2599e-05
9.1085e-05
0.00010147
0.00014143
8.8387e-05
3.7514e-05
1.2852e-05
6.4778e-06
4.9938e-06
8.7833e-06
1.1801e-05
1.2244e-05
1.1594e-05
1.0926e-05
1.051e-05
1.0252e-05
1.0056e-05
9.8828e-06
9.7227e-06
9.5741e-06
9.435e-06
9.3024e-06
9.1744e-06
9.0498e-06
8.9283e-06
8.8097e-06
8.694e-06
8.5811e-06
8.471e-06
8.3635e-06
8.2585e-06
8.1558e-06
8.0555e-06
7.9574e-06
7.8615e-06
7.7678e-06
7.6762e-06
7.5868e-06
7.4995e-06
7.4145e-06
7.3317e-06
7.2511e-06
7.1729e-06
7.097e-06
7.0235e-06
6.9525e-06
6.8839e-06
6.8179e-06
6.7545e-06
6.6937e-06
6.6356e-06
6.5801e-06
6.5272e-06
6.4771e-06
6.4296e-06
6.3847e-06
6.3424e-06
6.3028e-06
6.2656e-06
6.2309e-06
6.1986e-06
6.1687e-06
6.141e-06
6.1154e-06
6.0919e-06
6.0704e-06
6.0508e-06
6.0329e-06
6.0168e-06
6.0023e-06
5.9892e-06
5.9776e-06
5.9673e-06
5.9583e-06
5.9504e-06
5.9436e-06
5.9378e-06
5.933e-06
5.9295e-06
5.9277e-06
5.9255e-06
5.9163e-06
5.8935e-06
5.8875e-06
5.9706e-06
6.1993e-06
6.299e-06
5.2315e-06
4.3404e-06
4.99e-06
5.8851e-06
8.3071e-06
1
1
1
1
1
1
1
1
1
1
1
1
1
1
1
1
1
1
1
1
1
1
1
1
1
1
1
1
1
1
1
1
1
1
1
1
1
1
1
1
1
1
1
1
1
1
1
1
1
1
1
1
1
1
1
1
0.99999
0.99999
0.99999
0.99999
0.99999
0.99999
0.99999
0.99999
0.99999
0.99999
0.99999
0.99999
1
1
1
1
1
1
0.99999
0.99999
0.99999
0.99999
0.99999
0.99999
0.99999
0.99999
0.99999
0.99998
0.99998
0.99998
0.99998
0.99998
0.99998
0.99998
0.99998
0.99999
0.99999
0.99999
0.99999
0.99999
0.99999
0.99999
0.99999
0.99999
0.99999
0.99999
0.99999
0.99999
0.99999
0.99999
0.99999
0.99999
0.99999
0.99999
0.99999
0.99999
0.99999
0.99999
0.99999
0.99999
0.99999
0.99999
0.99999
0.99999
0.99999
0.99999
0.99999
0.99999
0.99999
0.99999
0.99999
0.99999
0.99999
0.99999
0.99999
0.99999
0.99999
0.99999
0.99999
0.99999
0.99999
0.99999
0.99999
0.99999
0.99999
0.99999
0.99999
0.99999
0.99999
0.99999
0.99999
0.99999
0.99999
0.99999
0.99999
0.99999
0.99999
0.99999
0.99999
0.99999
0.99999
0.99999
0.99999
0.99999
0.99999
0.99999
0.99999
0.99999
0.99999
0.99999
0.99999
0.99999
0.99999
0.99999
0.99999
0.99999
0.99999
0.99999
0.99999
0.99999
0.99999
0.99999
0.99999
0.99999
0.99999
0.99999
0.99999
0.99999
0.99999
0.99999
0.99999
0.99999
0.99999
0.99999
0.99999
0.99999
0.99999
0.99999
0.99999
0.99999
0.99999
0.99999
0.99999
0.99999
0.99999
0.99999
0.99999
0.99999
0.99999
0.99999
0.99999
0.99999
0.99999
0.99999
0.99999
0.99999
0.99999
0.99999
0.99998
0.99998
0.99998
0.99998
0.99998
0.99998
0.99998
0.99998
0.99998
0.99998
0.99998
0.99998
0.99998
0.99998
0.99998
0.99998
0.99998
0.99998
0.99997
0.99997
0.99997
0.99997
0.99997
0.99997
0.99997
0.99997
0.99997
0.99997
0.99996
0.99996
0.99996
0.99996
0.99996
0.99996
0.99996
0.99996
0.99996
0.99996
0.99996
0.99996
0.99996
0.99996
0.99996
0.99996
0.99997
0.99997
0.99997
0.99997
0.99998
0.99998
0.99998
0.99999
0.99999
0.99999
0.99999
0.99999
0.99999
0.99997
0.99987
0.99949
0.99731
0.97582
0.78701
0.074251
0.0037627
0.00025624
3.0194e-05
6.6199e-06
3.359e-06
3.9149e-06
7.7793e-06
1.8462e-05
3.713e-05
6.4879e-05
9.2483e-05
0.00011303
0.00012277
0.00012482
0.00012356
0.00012095
0.00011844
0.00011593
0.00011361
0.00011095
0.00010883
0.00010729
0.00010613
0.00010511
0.00010383
0.00010243
0.00010095
9.9869e-05
9.8767e-05
9.6153e-05
9.2339e-05
9.1046e-05
0.00010122
0.00014008
8.6393e-05
3.5868e-05
1.1914e-05
5.8269e-06
4.4086e-06
7.7622e-06
1.0693e-05
1.1502e-05
1.1261e-05
1.0845e-05
1.0524e-05
1.0263e-05
1.0021e-05
9.796e-06
9.5957e-06
9.4212e-06
9.2676e-06
9.128e-06
8.997e-06
8.8713e-06
8.7492e-06
8.6301e-06
8.5137e-06
8.4001e-06
8.2892e-06
8.181e-06
8.0754e-06
7.9722e-06
7.8715e-06
7.7732e-06
7.6771e-06
7.5833e-06
7.4917e-06
7.4023e-06
7.3152e-06
7.2302e-06
7.1475e-06
7.0671e-06
6.989e-06
6.9132e-06
6.8398e-06
6.7688e-06
6.7002e-06
6.6342e-06
6.5706e-06
6.5096e-06
6.4512e-06
6.3953e-06
6.3421e-06
6.2914e-06
6.2433e-06
6.1977e-06
6.1547e-06
6.1141e-06
6.076e-06
6.0403e-06
6.0069e-06
5.9757e-06
5.9467e-06
5.9198e-06
5.895e-06
5.8721e-06
5.851e-06
5.8317e-06
5.8142e-06
5.7982e-06
5.7837e-06
5.7707e-06
5.7591e-06
5.7487e-06
5.7396e-06
5.7317e-06
5.7247e-06
5.7189e-06
5.7145e-06
5.7118e-06
5.7089e-06
5.6992e-06
5.6765e-06
5.6702e-06
5.7501e-06
5.9706e-06
6.0668e-06
5.0356e-06
4.1754e-06
4.8031e-06
5.6681e-06
8.0106e-06
1
1
1
1
1
1
1
1
1
1
1
1
1
1
1
1
1
1
1
1
1
1
1
1
1
1
1
1
1
1
1
1
1
1
1
1
1
1
1
1
1
1
1
1
1
1
1
1
1
1
1
1
0.99999
0.99999
0.99999
0.99999
0.99999
0.99999
0.99999
0.99999
0.99999
0.99999
0.99999
0.99999
0.99999
0.99999
1
1
0.99999
0.99999
0.99999
0.99999
0.99999
0.99999
0.99999
0.99999
0.99999
0.99999
0.99999
0.99998
0.99998
0.99998
0.99998
0.99998
0.99998
0.99998
0.99998
0.99998
0.99998
0.99998
0.99998
0.99998
0.99998
0.99998
0.99998
0.99998
0.99998
0.99998
0.99998
0.99998
0.99998
0.99998
0.99998
0.99998
0.99998
0.99998
0.99998
0.99998
0.99998
0.99998
0.99998
0.99998
0.99998
0.99998
0.99998
0.99998
0.99998
0.99998
0.99998
0.99998
0.99998
0.99998
0.99998
0.99998
0.99998
0.99998
0.99998
0.99998
0.99998
0.99998
0.99998
0.99998
0.99998
0.99998
0.99998
0.99998
0.99998
0.99998
0.99998
0.99998
0.99998
0.99998
0.99998
0.99998
0.99998
0.99998
0.99998
0.99998
0.99998
0.99998
0.99998
0.99998
0.99998
0.99998
0.99998
0.99998
0.99998
0.99998
0.99998
0.99998
0.99998
0.99998
0.99998
0.99998
0.99998
0.99998
0.99998
0.99998
0.99998
0.99998
0.99998
0.99998
0.99999
0.99999
0.99999
0.99999
0.99999
0.99999
0.99999
0.99999
0.99999
0.99999
0.99999
0.99999
0.99999
0.99999
0.99999
0.99999
0.99999
0.99999
0.99999
0.99999
0.99999
0.99999
0.99999
0.99999
0.99999
0.99999
0.99999
0.99999
0.99999
0.99999
0.99999
0.99999
0.99999
0.99999
0.99999
0.99998
0.99998
0.99998
0.99998
0.99998
0.99998
0.99998
0.99998
0.99998
0.99998
0.99998
0.99998
0.99998
0.99998
0.99998
0.99998
0.99998
0.99998
0.99998
0.99998
0.99998
0.99998
0.99997
0.99997
0.99997
0.99997
0.99997
0.99997
0.99997
0.99997
0.99996
0.99996
0.99996
0.99996
0.99996
0.99996
0.99996
0.99995
0.99995
0.99995
0.99995
0.99995
0.99995
0.99995
0.99995
0.99995
0.99995
0.99995
0.99996
0.99996
0.99996
0.99996
0.99996
0.99996
0.99996
0.99996
0.99997
0.99997
0.99998
0.99998
0.99999
0.99999
0.99999
0.99999
0.99998
0.99995
0.99989
0.99968
0.99867
0.99327
0.95867
0.70236
0.03822
0.0012248
7.1553e-05
1.0441e-05
4.7034e-06
4.0618e-06
5.6317e-06
9.6171e-06
1.9318e-05
3.7175e-05
6.2712e-05
8.8786e-05
0.00010838
0.0001186
0.0001214
0.0001207
0.00011844
0.00011601
0.0001133
0.00011108
0.0001093
0.00010795
0.00010643
0.00010493
0.00010348
0.00010219
0.00010134
0.00010033
9.7878e-05
9.4261e-05
9.2774e-05
0.00010106
0.00013349
0.00010237
5.2653e-05
1.8478e-05
7.9437e-06
4.7988e-06
5.9353e-06
7.6953e-06
9.4049e-06
1.0187e-05
1.0488e-05
1.0563e-05
1.0469e-05
1.0262e-05
1.0007e-05
9.756e-06
9.5313e-06
9.3386e-06
9.1724e-06
9.0255e-06
8.8912e-06
8.7645e-06
8.6427e-06
8.5243e-06
8.4086e-06
8.2956e-06
8.1851e-06
8.0772e-06
7.9719e-06
7.8691e-06
7.7688e-06
7.6709e-06
7.5754e-06
7.4822e-06
7.3913e-06
7.3027e-06
7.2164e-06
7.1324e-06
7.0507e-06
6.9713e-06
6.8943e-06
6.8196e-06
6.7474e-06
6.6776e-06
6.6103e-06
6.5454e-06
6.4831e-06
6.4233e-06
6.3661e-06
6.3113e-06
6.2592e-06
6.2095e-06
6.1623e-06
6.1176e-06
6.0754e-06
6.0355e-06
5.998e-06
5.9627e-06
5.9297e-06
5.8988e-06
5.87e-06
5.8432e-06
5.8183e-06
5.7954e-06
5.7742e-06
5.7547e-06
5.7368e-06
5.7206e-06
5.7058e-06
5.6925e-06
5.6806e-06
5.67e-06
5.6606e-06
5.6523e-06
5.6453e-06
5.6398e-06
5.636e-06
5.6322e-06
5.6218e-06
5.5987e-06
5.5919e-06
5.6702e-06
5.8875e-06
5.9821e-06
4.9639e-06
4.1151e-06
4.735e-06
5.5894e-06
7.9039e-06
1
1
1
1
1
1
1
1
1
1
1
1
1
1
1
1
1
1
1
1
1
1
1
1
1
1
1
1
1
1
1
1
1
1
1
1
1
1
1
1
1
1
1
1
1
1
1
1
0.99999
0.99999
0.99999
0.99999
0.99999
0.99999
0.99999
0.99999
0.99999
0.99999
0.99999
0.99999
0.99999
0.99999
0.99999
0.99999
0.99999
0.99999
0.99999
0.99999
0.99999
0.99999
0.99999
0.99999
0.99999
0.99998
0.99998
0.99998
0.99998
0.99998
0.99998
0.99998
0.99998
0.99998
0.99998
0.99998
0.99998
0.99998
0.99998
0.99998
0.99998
0.99998
0.99998
0.99998
0.99998
0.99998
0.99998
0.99998
0.99998
0.99998
0.99998
0.99998
0.99998
0.99998
0.99998
0.99998
0.99998
0.99998
0.99998
0.99998
0.99998
0.99998
0.99998
0.99998
0.99998
0.99998
0.99998
0.99998
0.99998
0.99998
0.99998
0.99998
0.99998
0.99998
0.99998
0.99998
0.99998
0.99998
0.99998
0.99998
0.99998
0.99998
0.99998
0.99998
0.99998
0.99998
0.99998
0.99998
0.99998
0.99998
0.99998
0.99998
0.99998
0.99998
0.99998
0.99998
0.99998
0.99998
0.99998
0.99998
0.99998
0.99998
0.99998
0.99998
0.99998
0.99998
0.99998
0.99998
0.99998
0.99998
0.99998
0.99998
0.99998
0.99998
0.99998
0.99998
0.99998
0.99998
0.99998
0.99998
0.99998
0.99998
0.99998
0.99998
0.99998
0.99998
0.99998
0.99998
0.99998
0.99998
0.99998
0.99998
0.99998
0.99998
0.99998
0.99998
0.99998
0.99998
0.99998
0.99998
0.99998
0.99998
0.99998
0.99998
0.99998
0.99998
0.99998
0.99998
0.99998
0.99998
0.99998
0.99998
0.99998
0.99998
0.99998
0.99998
0.99998
0.99998
0.99998
0.99998
0.99998
0.99998
0.99998
0.99998
0.99998
0.99998
0.99998
0.99998
0.99998
0.99998
0.99998
0.99998
0.99998
0.99998
0.99998
0.99998
0.99998
0.99998
0.99997
0.99997
0.99997