/*--------------------------------*- C++ -*----------------------------------*\
| =========                 |                                                 |
| \\      /  F ield         | OpenFOAM: The Open Source CFD Toolbox           |
|  \\    /   O peration     | Version:  5.x                                   |
|   \\  /    A nd           | Web:      www.OpenFOAM.org                      |
|    \\/     M anipulation  |                                                 |
\*---------------------------------------------------------------------------*/
FoamFile
{
    version     2.0;
    format      ascii;
    class       volScalarField;
    location    "65";
    object      gamma;
}
// * * * * * * * * * * * * * * * * * * * * * * * * * * * * * * * * * * * * * //

dimensions      [0 0 0 0 0 0 0];

internalField   nonuniform List<scalar> 
80000
(
1
1
1
1
1
1
1
1
1
1
1
1
1
1
1
1
1
1
1
1
1
1
1
1
1
1
1
1
1
1
1
1
1
1
1
1
1
1
1
1
1
1
1
1
1
1
1
1
1
1
1
1
1
1
1
1
1
1
1
1
1
1
1
1
1
1
1
1
1
1
1
1
1
1
1
1
1
1
1
1
1
1
1
1
1
1
1
1
1
1
1
1
1
1
1
1
1
1
1
1
1
1
1
1
1
1
1
1
1
1
1
1
1
1
1
1
1
1
1
1
1
1
1
1
1
1
1
1
1
1
1
1
1
1
1
1
1
1
1
1
1
1
1
1
1
1
1
1
1
1
1
1
1
1
1
1
1
1
1
1
1
1
1
1
1
1
1
1
1
1
1
1
1
1
1
1
1
1
1
1
1
1
1
1
1
1
1
1
1
1
1
1
1
1
1
1
1
1
1
1
1
1
1
1
1
1
1
1
1
1
1
1
1
1
1
1
1
1
1
1
1
1
1
1
1
1
1
1
1
1
1
1
1
1
1
1
1
1
1
1
1
1
1
1
1
1
1
1
1
1
1
1
1
0.99999
0.99999
0.99998
0.99996
0.99994
0.99991
0.99982
0.99924
0.99195
0.85809
0.033758
0.00067466
3.496e-05
3.9607e-06
5.8024e-07
1.5181e-07
7.7528e-08
1.0381e-07
2.9447e-07
1.163e-06
3.7903e-06
8.967e-06
1.2128e-05
1.1807e-05
1.2076e-05
1.8868e-05
3.6514e-05
8.5864e-05
0.00014263
0.00020373
0.00023098
0.00015592
8.5739e-05
3.7337e-05
2.2437e-05
1.9984e-05
2.8136e-05
3.047e-05
2.9969e-05
2.8938e-05
2.8006e-05
2.7149e-05
2.6591e-05
2.633e-05
2.6178e-05
2.6146e-05
2.5917e-05
2.5555e-05
2.5078e-05
2.4567e-05
2.4163e-05
2.3874e-05
2.3666e-05
2.3582e-05
2.3445e-05
2.2986e-05
2.2154e-05
2.111e-05
2.0793e-05
2.3231e-05
3.3136e-05
4.5383e-05
2.6156e-05
1.0627e-05
3.2863e-06
1.5651e-06
1.2634e-06
1.8403e-06
1.9924e-06
1.9278e-06
1.8441e-06
1.7919e-06
1.7617e-06
1.735e-06
1.7071e-06
1.6789e-06
1.6513e-06
1.6244e-06
1.5983e-06
1.5729e-06
1.5481e-06
1.524e-06
1.5003e-06
1.4773e-06
1.4548e-06
1.4328e-06
1.4113e-06
1.3903e-06
1.3699e-06
1.3499e-06
1.3305e-06
1.3116e-06
1.2933e-06
1.2755e-06
1.2582e-06
1.2415e-06
1.2254e-06
1.2098e-06
1.1948e-06
1.1805e-06
1.1668e-06
1.1537e-06
1.1412e-06
1.1294e-06
1.1182e-06
1.1077e-06
1.0978e-06
1.0886e-06
1.0801e-06
1.0721e-06
1.0649e-06
1.0582e-06
1.0522e-06
1.0467e-06
1.0419e-06
1.0375e-06
1.0337e-06
1.0305e-06
1.0276e-06
1.0252e-06
1.0232e-06
1.0216e-06
1.0203e-06
1.0194e-06
1.0186e-06
1.0181e-06
1.0178e-06
1.0176e-06
1.0176e-06
1.0176e-06
1.0177e-06
1.0178e-06
1.0179e-06
1.0182e-06
1.0185e-06
1.0187e-06
1.0173e-06
1.0132e-06
1.0121e-06
1.028e-06
1.0726e-06
1.0927e-06
8.8743e-07
7.1896e-07
8.3359e-07
1.0092e-06
1.5225e-06
1
1
1
1
1
1
1
1
1
1
1
1
1
1
1
1
1
1
1
1
1
1
1
1
1
1
1
1
1
1
1
1
1
1
1
1
1
1
1
1
1
1
1
1
1
1
1
1
1
1
1
1
1
1
1
1
1
1
1
1
1
1
1
1
1
1
1
1
1
1
1
1
1
1
1
1
1
1
1
1
1
1
1
1
1
1
1
1
1
1
1
1
1
1
1
1
1
1
1
1
1
1
1
1
1
1
1
1
1
1
1
1
1
1
1
1
1
1
1
1
1
1
1
1
1
1
1
1
1
1
1
1
1
1
1
1
1
1
1
1
1
1
1
1
1
1
1
1
1
1
1
1
1
1
1
1
1
1
1
1
1
1
1
1
1
1
1
1
1
1
1
1
1
1
1
1
1
1
1
1
1
1
1
1
1
1
1
1
1
1
1
1
1
1
1
1
1
1
1
1
1
1
1
1
1
1
1
1
1
1
1
1
1
1
1
1
1
1
1
1
1
1
1
1
1
1
1
1
1
1
1
1
1
1
1
1
1
1
1
1
1
1
1
1
1
1
1
1
1
1
1
1
1
1
0.99999
0.99999
0.99998
0.99996
0.99994
0.99988
0.9996
0.99789
0.98497
0.88502
0.30143
0.022292
0.0019628
0.00014046
1.2682e-05
1.7872e-06
6.0716e-07
4.7019e-07
6.4246e-07
9.9554e-07
1.5781e-06
2.4149e-06
4.1093e-06
8.3701e-06
2.135e-05
5.6761e-05
0.00010399
0.00014899
0.00016911
0.00014656
8.4808e-05
4.3335e-05
2.0852e-05
1.5382e-05
1.5847e-05
2.129e-05
2.2673e-05
2.2169e-05
2.1304e-05
2.0603e-05
2.0081e-05
1.978e-05
1.9638e-05
1.9563e-05
1.9373e-05
1.91e-05
1.8776e-05
1.8409e-05
1.8047e-05
1.779e-05
1.7596e-05
1.7479e-05
1.7348e-05
1.7153e-05
1.6705e-05
1.6052e-05
1.5437e-05
1.5795e-05
1.8931e-05
2.2931e-05
2.1784e-05
1.0486e-05
4.0405e-06
1.4692e-06
9.3484e-07
9.1658e-07
1.2688e-06
1.3448e-06
1.2955e-06
1.2402e-06
1.2061e-06
1.1858e-06
1.1675e-06
1.1485e-06
1.1294e-06
1.1108e-06
1.0927e-06
1.0751e-06
1.058e-06
1.0414e-06
1.0251e-06
1.0093e-06
9.9379e-07
9.7867e-07
9.6389e-07
9.4947e-07
9.3538e-07
9.2164e-07
9.0823e-07
8.9517e-07
8.8246e-07
8.7009e-07
8.5808e-07
8.4644e-07
8.3516e-07
8.2426e-07
8.1375e-07
8.0363e-07
7.9391e-07
7.846e-07
7.757e-07
7.6722e-07
7.5917e-07
7.5155e-07
7.4436e-07
7.376e-07
7.3127e-07
7.2538e-07
7.1991e-07
7.1487e-07
7.1024e-07
7.0602e-07
7.0218e-07
6.9874e-07
6.9565e-07
6.9292e-07
6.9052e-07
6.8844e-07
6.8664e-07
6.8512e-07
6.8385e-07
6.8281e-07
6.8197e-07
6.813e-07
6.808e-07
6.8043e-07
6.8017e-07
6.8001e-07
6.7991e-07
6.7987e-07
6.7986e-07
6.7989e-07
6.7999e-07
6.802e-07
6.8028e-07
6.7933e-07
6.7648e-07
6.7579e-07
6.8689e-07
7.1763e-07
7.3118e-07
5.8907e-07
4.7465e-07
5.562e-07
6.7281e-07
1.0092e-06
1
1
1
1
1
1
1
1
1
1
1
1
1
1
1
1
1
1
1
1
1
1
1
1
1
1
1
1
1
1
1
1
1
1
1
1
1
1
1
1
1
1
1
1
1
1
1
1
1
1
1
1
1
1
1
1
1
1
1
1
1
1
1
1
1
1
1
1
1
1
1
1
1
1
1
1
1
1
1
1
1
1
1
1
1
1
1
1
1
1
1
1
1
1
1
1
1
1
1
1
1
1
1
1
1
1
1
1
1
1
1
1
1
1
1
1
1
1
1
1
1
1
1
1
1
1
1
1
1
1
1
1
1
1
1
1
1
1
1
1
1
1
1
1
1
1
1
1
1
1
1
1
1
1
1
1
1
1
1
1
1
1
1
1
1
1
1
1
1
1
1
1
1
1
1
1
1
1
1
1
1
1
1
1
1
1
1
1
1
1
1
1
1
1
1
1
1
1
1
1
1
1
1
1
1
1
1
1
1
1
1
1
1
1
1
1
1
1
1
1
1
1
1
1
1
1
1
1
1
1
1
1
1
1
1
1
1
1
1
1
1
1
1
1
1
1
1
1
1
1
1
1
1
1
1
0.99999
0.99999
0.99998
0.99997
0.99995
0.99989
0.99969
0.99876
0.99438
0.97735
0.91866
0.70793
0.093753
0.0052397
0.00027605
2.6853e-05
4.9408e-06
1.5575e-06
6.7537e-07
4.9303e-07
6.3074e-07
1.4466e-06
5.0765e-06
2.1627e-05
6.3071e-05
0.00012122
0.00015365
0.00013581
9.1184e-05
4.6551e-05
2.2031e-05
1.4707e-05
1.3377e-05
1.5269e-05
1.9113e-05
1.9855e-05
1.9214e-05
1.8443e-05
1.7885e-05
1.753e-05
1.7341e-05
1.7252e-05
1.7075e-05
1.6827e-05
1.6534e-05
1.6217e-05
1.5914e-05
1.5636e-05
1.5443e-05
1.5284e-05
1.5168e-05
1.5006e-05
1.4753e-05
1.4272e-05
1.3697e-05
1.3451e-05
1.4584e-05
1.9211e-05
1.9375e-05
1.3401e-05
5.4113e-06
1.7917e-06
8.4658e-07
7.3553e-07
8.3976e-07
1.0774e-06
1.1096e-06
1.0645e-06
1.0219e-06
9.9581e-07
9.7931e-07
9.6408e-07
9.4842e-07
9.3274e-07
9.1746e-07
9.0268e-07
8.8835e-07
8.7442e-07
8.6085e-07
8.4761e-07
8.3469e-07
8.2208e-07
8.0976e-07
7.9772e-07
7.8597e-07
7.7449e-07
7.6328e-07
7.5234e-07
7.4167e-07
7.3128e-07
7.2117e-07
7.1134e-07
7.018e-07
6.9256e-07
6.8361e-07
6.7496e-07
6.6663e-07
6.5862e-07
6.5094e-07
6.4358e-07
6.3656e-07
6.2987e-07
6.2353e-07
6.1754e-07
6.1189e-07
6.0658e-07
6.0162e-07
5.9701e-07
5.9273e-07
5.8878e-07
5.8516e-07
5.8186e-07
5.7886e-07
5.7616e-07
5.7374e-07
5.7159e-07
5.697e-07
5.6804e-07
5.6661e-07
5.6538e-07
5.6434e-07
5.6348e-07
5.6276e-07
5.6219e-07
5.6173e-07
5.6137e-07
5.611e-07
5.609e-07
5.6076e-07
5.6066e-07
5.6061e-07
5.6064e-07
5.6077e-07
5.6081e-07
5.5999e-07
5.576e-07
5.5703e-07
5.6638e-07
5.9214e-07
6.0347e-07
4.8454e-07
3.8873e-07
4.5781e-07
5.562e-07
8.3359e-07
1
1
1
1
1
1
1
1
1
1
1
1
1
1
1
1
1
1
1
1
1
1
1
1
1
1
1
1
1
1
1
1
1
1
1
1
1
1
1
1
1
1
1
1
1
1
1
1
1
1
1
1
1
1
1
1
1
1
1
1
1
1
1
1
1
1
1
1
1
1
1
1
1
1
1
1
1
1
1
1
1
1
1
1
1
1
1
1
1
1
1
1
1
1
1
1
1
1
1
1
1
1
1
1
1
1
1
1
1
1
1
1
1
1
1
1
1
1
1
1
1
1
1
1
1
1
1
1
1
1
1
1
1
1
1
1
1
1
1
1
1
1
1
1
1
1
1
1
1
1
1
1
1
1
1
1
1
1
1
1
1
1
1
1
1
1
1
1
1
1
1
1
1
1
1
1
1
1
1
1
1
1
1
1
1
1
1
1
1
1
1
1
1
1
1
1
1
1
1
1
1
1
1
1
1
1
1
1
1
1
1
1
1
1
1
1
1
1
1
1
1
1
1
1
1
1
1
1
1
1
1
1
1
1
1
1
1
1
1
1
1
1
1
1
1
1
1
1
1
1
1
1
1
1
1
1
0.99999
0.99999
0.99999
0.99998
0.99998
0.99997
0.99995
0.99992
0.99982
0.99953
0.99848
0.99194
0.93427
0.31004
0.00755
0.00027447
1.6522e-05
1.8078e-06
4.4225e-07
2.9461e-07
5.6986e-07
2.5805e-06
1.2591e-05
4.7103e-05
9.9284e-05
0.00011285
8.1899e-05
4.45e-05
2.0657e-05
1.3338e-05
1.1747e-05
1.3007e-05
1.5842e-05
1.79e-05
1.7851e-05
1.707e-05
1.6387e-05
1.595e-05
1.5732e-05
1.5654e-05
1.5531e-05
1.5292e-05
1.5001e-05
1.468e-05
1.4387e-05
1.4153e-05
1.3945e-05
1.3802e-05
1.3681e-05
1.3523e-05
1.3328e-05
1.3004e-05
1.2473e-05
1.1981e-05
1.2204e-05
1.4488e-05
1.7765e-05
1.2894e-05
5.9655e-06
1.8817e-06
7.9416e-07
5.3266e-07
6.4253e-07
8.2721e-07
9.5124e-07
9.4223e-07
9.0054e-07
8.6856e-07
8.49e-07
8.3529e-07
8.2215e-07
8.0875e-07
7.9545e-07
7.8254e-07
7.7008e-07
7.5802e-07
7.4629e-07
7.3489e-07
7.2377e-07
7.1293e-07
7.0235e-07
6.9201e-07
6.8192e-07
6.7205e-07
6.6241e-07
6.53e-07
6.4381e-07
6.3484e-07
6.261e-07
6.1758e-07
6.0929e-07
6.0123e-07
5.9341e-07
5.8584e-07
5.7851e-07
5.7143e-07
5.6461e-07
5.5805e-07
5.5176e-07
5.4575e-07
5.4e-07
5.3454e-07
5.2935e-07
5.2445e-07
5.1983e-07
5.1549e-07
5.1143e-07
5.0765e-07
5.0413e-07
5.0089e-07
4.979e-07
4.9516e-07
4.9267e-07
4.9041e-07
4.8838e-07
4.8656e-07
4.8493e-07
4.835e-07
4.8224e-07
4.8114e-07
4.802e-07
4.7938e-07
4.787e-07
4.7812e-07
4.7764e-07
4.7725e-07
4.7693e-07
4.7668e-07
4.7649e-07
4.7635e-07
4.7629e-07
4.7635e-07
4.7634e-07
4.756e-07
4.7353e-07
4.7306e-07
4.8115e-07
5.0335e-07
5.1304e-07
4.105e-07
3.2827e-07
3.8873e-07
4.7465e-07
7.1896e-07
1
1
1
1
1
1
1
1
1
1
1
1
1
1
1
1
1
1
1
1
1
1
1
1
1
1
1
1
1
1
1
1
1
1
1
1
1
1
1
1
1
1
1
1
1
1
1
1
1
1
1
1
1
1
1
1
1
1
1
1
1
1
1
1
1
1
1
1
1
1
1
1
1
1
1
1
1
1
1
1
1
1
1
1
1
1
1
1
1
1
1
1
1
1
1
1
1
1
1
1
1
1
1
1
1
1
1
1
1
1
1
1
1
1
1
1
1
1
1
1
1
1
1
1
1
1
1
1
1
1
1
1
1
1
1
1
1
1
1
1
1
1
1
1
1
1
1
1
1
1
1
1
1
1
1
1
1
1
1
1
1
1
1
1
1
1
1
1
1
1
1
1
1
1
1
1
1
1
1
1
1
1
1
1
1
1
1
1
1
1
1
1
1
1
1
1
1
1
1
1
1
1
1
1
1
1
1
1
1
1
1
1
1
1
1
1
1
1
1
1
1
1
1
1
1
1
1
1
1
1
1
1
1
1
1
1
1
1
1
1
1
1
1
1
1
1
1
1
1
1
1
1
1
1
1
1
1
0.99999
0.99999
0.99999
0.99999
0.99999
0.99999
0.99999
0.99999
0.99999
0.99997
0.99993
0.99956
0.99563
0.95135
0.41084
0.0069175
0.00018848
9.3414e-06
1.3114e-06
9.4733e-07
1.9247e-06
6.1723e-06
1.7595e-05
3.3034e-05
3.8194e-05
3.1212e-05
1.8281e-05
1.3435e-05
1.2688e-05
1.4605e-05
1.8446e-05
2.1967e-05
2.2436e-05
2.1538e-05
2.0378e-05
1.9591e-05
1.915e-05
1.8993e-05
1.8841e-05
1.8633e-05
1.8244e-05
1.7839e-05
1.7479e-05
1.7204e-05
1.6976e-05
1.6775e-05
1.6608e-05
1.6394e-05
1.6163e-05
1.5896e-05
1.5432e-05
1.4738e-05
1.4239e-05
1.5178e-05
1.9856e-05
2.0025e-05
1.0487e-05
3.6637e-06
1.1415e-06
5.802e-07
5.8924e-07
9.0534e-07
1.1751e-06
1.2136e-06
1.1613e-06
1.109e-06
1.0759e-06
1.0551e-06
1.0385e-06
1.0221e-06
1.0055e-06
9.8923e-07
9.7348e-07
9.5826e-07
9.4351e-07
9.292e-07
9.1528e-07
9.0173e-07
8.8852e-07
8.7563e-07
8.6305e-07
8.5077e-07
8.3877e-07
8.2704e-07
8.1558e-07
8.0439e-07
7.9346e-07
7.828e-07
7.7241e-07
7.6228e-07
7.5243e-07
7.4287e-07
7.3358e-07
7.2459e-07
7.1589e-07
7.0749e-07
6.994e-07
6.9163e-07
6.8417e-07
6.7704e-07
6.7023e-07
6.6375e-07
6.576e-07
6.5179e-07
6.463e-07
6.4115e-07
6.3632e-07
6.3181e-07
6.2761e-07
6.2372e-07
6.2014e-07
6.1684e-07
6.1382e-07
6.1107e-07
6.0857e-07
6.0631e-07
6.0429e-07
6.0248e-07
6.0087e-07
5.9945e-07
5.982e-07
5.9712e-07
5.9618e-07
5.9537e-07
5.9469e-07
5.9411e-07
5.9364e-07
5.9325e-07
5.9294e-07
5.9277e-07
5.9275e-07
5.9267e-07
5.9172e-07
5.8915e-07
5.8854e-07
5.9846e-07
6.2568e-07
6.3758e-07
5.1191e-07
4.105e-07
4.8454e-07
5.8907e-07
8.8743e-07
1
1
1
1
1
1
1
1
1
1
1
1
1
1
1
1
1
1
1
1
1
1
1
1
1
1
1
1
1
1
1
1
1
1
1
1
1
1
1
1
1
1
1
1
1
1
1
1
1
1
1
1
1
1
1
1
1
1
1
1
1
1
1
1
1
1
1
1
1
1
1
1
1
1
1
1
1
1
1
1
1
1
1
1
1
1
1
1
1
1
1
1
1
1
1
1
1
1
1
1
1
1
1
1
1
1
1
1
1
1
1
1
1
1
1
1
1
1
1
1
1
1
1
1
1
1
1
1
1
1
1
1
1
1
1
1
1
1
1
1
1
1
1
1
1
1
1
1
1
1
1
1
1
1
1
1
1
1
1
1
1
1
1
1
1
1
1
1
1
1
1
1
1
1
1
1
1
1
1
1
1
1
1
1
1
1
1
1
1
1
1
1
1
1
1
1
1
1
1
1
1
1
1
1
1
1
1
1
1
1
1
1
1
1
1
1
1
1
1
1
1
1
1
1
1
1
1
1
1
1
1
1
1
1
1
1
1
1
1
1
1
1
1
1
1
1
0.99999
0.99999
0.99999
0.99999
0.99999
0.99999
0.99999
0.99999
0.99999
0.99999
1
1
1
1
1
1
1
1
1
1
1
1
0.99999
0.99994
0.99961
0.99612
0.94357
0.22955
0.0032046
9.4017e-05
1.1622e-05
4.9539e-06
4.7028e-06
4.9939e-06
5.3917e-06
5.3708e-06
5.1114e-06
5.9196e-06
8.8244e-06
1.4295e-05
2.1511e-05
2.7695e-05
2.8944e-05
2.7851e-05
2.6185e-05
2.4645e-05
2.3736e-05
2.3243e-05
2.2988e-05
2.2704e-05
2.2371e-05
2.1801e-05
2.1283e-05
2.0921e-05
2.0647e-05
2.0428e-05
2.025e-05
2.0016e-05
1.9705e-05
1.9406e-05
1.9075e-05
1.8463e-05
1.759e-05
1.7134e-05
1.9007e-05
2.6935e-05
2.068e-05
8.3059e-06
2.4146e-06
9.7231e-07
6.2456e-07
9.338e-07
1.4625e-06
1.6181e-06
1.5505e-06
1.4515e-06
1.3862e-06
1.349e-06
1.3239e-06
1.3021e-06
1.2807e-06
1.2596e-06
1.2393e-06
1.2196e-06
1.2006e-06
1.1821e-06
1.1641e-06
1.1467e-06
1.1297e-06
1.1131e-06
1.097e-06
1.0813e-06
1.0659e-06
1.051e-06
1.0363e-06
1.022e-06
1.0081e-06
9.9445e-07
9.8116e-07
9.682e-07
9.5557e-07
9.4328e-07
9.3133e-07
9.1972e-07
9.0847e-07
8.9759e-07
8.8706e-07
8.7691e-07
8.6714e-07
8.5776e-07
8.4876e-07
8.4016e-07
8.3195e-07
8.2415e-07
8.1674e-07
8.0973e-07
8.0312e-07
7.969e-07
7.9107e-07
7.8561e-07
7.8053e-07
7.7581e-07
7.7144e-07
7.6741e-07
7.6371e-07
7.6032e-07
7.5722e-07
7.5441e-07
7.5187e-07
7.4958e-07
7.4753e-07
7.457e-07
7.4408e-07
7.4265e-07
7.414e-07
7.4032e-07
7.3939e-07
7.386e-07
7.3794e-07
7.3741e-07
7.3705e-07
7.3691e-07
7.3671e-07
7.3546e-07
7.3225e-07
7.3146e-07
7.4356e-07
7.7684e-07
7.9142e-07
6.3758e-07
5.1304e-07
6.0347e-07
7.3118e-07
1.0927e-06
1
1
1
1
1
1
1
1
1
1
1
1
1
1
1
1
1
1
1
1
1
1
1
1
1
1
1
1
1
1
1
1
1
1
1
1
1
1
1
1
1
1
1
1
1
1
1
1
1
1
1
1
1
1
1
1
1
1
1
1
1
1
1
1
1
1
1
1
1
1
1
1
1
1
1
1
1
1
1
1
1
1
1
1
1
1
1
1
1
1
1
1
1
1
1
1
1
1
1
1
1
1
1
1
1
1
1
1
1
1
1
1
1
1
1
1
1
1
1
1
1
1
1
1
1
1
1
1
1
1
1
1
1
1
1
1
1
1
1
1
1
1
1
1
1
1
1
1
1
1
1
1
1
1
1
1
1
1
1
1
1
1
1
1
1
1
1
1
1
1
1
1
1
1
1
1
1
1
1
1
1
1
1
1
1
1
1
1
1
1
1
1
1
1
1
1
1
1
1
1
1
1
1
1
1
1
1
1
1
1
1
1
1
1
1
1
1
1
1
1
1
1
1
1
1
1
1
1
1
1
1
1
1
1
1
1
1
1
1
1
1
1
0.99999
0.99999
0.99999
0.99999
0.99999
0.99999
0.99999
0.99999
0.99999
0.99999
0.99999
0.99999
0.99999
0.99999
0.99999
0.99999
1
1
1
1
1
1
1
1
1
1
1
1
0.99999
0.99993
0.9994
0.99208
0.88086
0.063609
0.0017236
0.00010696
1.5427e-05
3.3568e-06
1.2641e-06
6.0531e-07
6.1884e-07
1.1361e-06
3.0959e-06
8.6487e-06
1.7418e-05
2.4681e-05
2.7607e-05
2.7746e-05
2.667e-05
2.5378e-05
2.4506e-05
2.3845e-05
2.3397e-05
2.2976e-05
2.2564e-05
2.1954e-05
2.1458e-05
2.1105e-05
2.0847e-05
2.0668e-05
2.0437e-05
2.0153e-05
1.9808e-05
1.952e-05
1.9219e-05
1.8606e-05
1.7719e-05
1.7378e-05
1.9716e-05
2.9076e-05
1.6816e-05
6.1941e-06
1.7776e-06
8.009e-07
5.9209e-07
1.1441e-06
1.6149e-06
1.6857e-06
1.5817e-06
1.476e-06
1.4105e-06
1.3703e-06
1.3398e-06
1.3129e-06
1.2882e-06
1.2653e-06
1.2438e-06
1.2235e-06
1.2039e-06
1.1849e-06
1.1664e-06
1.1483e-06
1.1308e-06
1.1137e-06
1.097e-06
1.0808e-06
1.065e-06
1.0496e-06
1.0346e-06
1.0199e-06
1.0056e-06
9.9165e-07
9.7804e-07
9.6478e-07
9.5186e-07
9.3929e-07
9.2708e-07
9.1522e-07
9.0372e-07
8.9259e-07
8.8183e-07
8.7145e-07
8.6145e-07
8.5184e-07
8.4261e-07
8.3378e-07
8.2535e-07
8.1731e-07
8.0967e-07
8.0242e-07
7.9557e-07
7.8911e-07
7.8303e-07
7.7733e-07
7.7199e-07
7.6701e-07
7.6238e-07
7.5809e-07
7.5413e-07
7.5047e-07
7.4712e-07
7.4404e-07
7.4124e-07
7.387e-07
7.364e-07
7.3432e-07
7.3246e-07
7.3081e-07
7.2935e-07
7.2806e-07
7.2694e-07
7.2597e-07
7.2514e-07
7.2446e-07
7.2397e-07
7.237e-07
7.234e-07
7.2208e-07
7.1884e-07
7.1799e-07
7.2982e-07
7.625e-07
7.7684e-07
6.2567e-07
5.0335e-07
5.9214e-07
7.1763e-07
1.0726e-06
1
1
1
1
1
1
1
1
1
1
1
1
1
1
1
1
1
1
1
1
1
1
1
1
1
1
1
1
1
1
1
1
1
1
1
1
1
1
1
1
1
1
1
1
1
1
1
1
1
1
1
1
1
1
1
1
1
1
1
1
1
1
1
1
1
1
1
1
1
1
1
1
1
1
1
1
1
1
1
1
1
1
1
1
1
1
1
1
1
1
1
1
1
1
1
1
1
1
1
1
1
1
1
1
1
1
1
1
1
1
1
1
1
1
1
1
1
1
1
1
1
1
1
1
1
1
1
1
1
1
1
1
1
1
1
1
1
1
1
1
1
1
1
1
1
1
1
1
1
1
1
1
1
1
1
1
1
1
1
1
1
1
1
1
1
1
1
1
1
1
1
1
1
1
1
1
1
1
1
1
1
1
1
1
1
1
1
1
1
1
1
1
1
1
1
1
1
1
1
1
1
1
1
1
1
1
1
1
1
1
1
1
1
1
1
1
1
1
1
1
1
1
1
1
1
1
1
1
1
1
1
1
1
1
1
1
1
0.99999
0.99999
0.99999
0.99999
0.99999
0.99999
0.99999
0.99999
0.99999
0.99999
0.99999
0.99999
0.99999
0.99999
0.99999
0.99999
0.99999
0.99999
0.99999
0.99999
0.99999
0.99999
0.99999
1
1
1
1
1
1
1
1
1
1
1
0.99999
0.99996
0.99978
0.99833
0.97691
0.70734
0.025722
0.00079054
2.9993e-05
2.1684e-06
3.6286e-07
1.8294e-07
2.7461e-07
7.56e-07
2.442e-06
5.8392e-06
1.1595e-05
1.7657e-05
2.2384e-05
2.4631e-05
2.5094e-05
2.4783e-05
2.4164e-05
2.3574e-05
2.2989e-05
2.2454e-05
2.1844e-05
2.136e-05
2.101e-05
2.0749e-05
2.0521e-05
2.023e-05
1.9916e-05
1.9583e-05
1.9343e-05
1.9097e-05
1.851e-05
1.7654e-05
1.7363e-05
1.9651e-05
2.8739e-05
1.6368e-05
5.8756e-06
1.6267e-06
7.077e-07
5.1197e-07
9.9039e-07
1.4392e-06
1.5671e-06
1.5289e-06
1.4631e-06
1.4128e-06
1.3719e-06
1.3344e-06
1.2994e-06
1.2685e-06
1.2417e-06
1.2181e-06
1.1967e-06
1.1768e-06
1.1576e-06
1.1391e-06
1.121e-06
1.1034e-06
1.0863e-06
1.0696e-06
1.0533e-06
1.0375e-06
1.0221e-06
1.0071e-06
9.9241e-07
9.7814e-07
9.6422e-07
9.5067e-07
9.3746e-07
9.2461e-07
9.1212e-07
8.9997e-07
8.8818e-07
8.7675e-07
8.6569e-07
8.5498e-07
8.4465e-07
8.347e-07
8.2512e-07
8.1592e-07
8.071e-07
7.9866e-07
7.9062e-07
7.8295e-07
7.7567e-07
7.6876e-07
7.6223e-07
7.5607e-07
7.5026e-07
7.4482e-07
7.3972e-07
7.3495e-07
7.3051e-07
7.2639e-07
7.2257e-07
7.1903e-07
7.1578e-07
7.1279e-07
7.1006e-07
7.0756e-07
7.053e-07
7.0325e-07
7.0141e-07
6.9976e-07
6.983e-07
6.9701e-07
6.9588e-07
6.949e-07
6.9408e-07
6.9346e-07
6.9307e-07
6.9266e-07
6.9129e-07
6.8809e-07
6.872e-07
6.9849e-07
7.2982e-07
7.4355e-07
5.9846e-07
4.8115e-07
5.6638e-07
6.8689e-07
1.028e-06
1
1
1
1
1
1
1
1
1
1
1
1
1
1
1
1
1
1
1
1
1
1
1
1
1
1
1
1
1
1
1
1
1
1
1
1
1
1
1
1
1
1
1
1
1
1
1
1
1
1
1
1
1
1
1
1
1
1
1
1
1
1
1
1
1
1
1
1
1
1
1
1
1
1
1
1
1
1
1
1
1
1
1
1
1
1
1
1
1
1
1
1
1
1
1
1
1
1
1
1
1
1
1
1
1
1
1
1
1
1
1
1
1
1
1
1
1
1
1
1
1
1
1
1
1
1
1
1
1
1
1
1
1
1
1
1
1
1
1
1
1
1
1
1
1
1
1
1
1
1
1
1
1
1
1
1
1
1
1
1
1
1
1
1
1
1
1
1
1
1
1
1
1
1
1
1
1
1
1
1
1
1
1
1
1
1
1
1
1
1
1
1
1
1
1
1
1
1
1
1
1
1
1
1
1
1
1
1
1
1
1
1
1
1
1
1
1
1
1
1
1
1
1
1
1
1
1
1
1
1
1
1
1
0.99999
0.99999
0.99999
0.99999
0.99999
0.99999
0.99999
0.99999
0.99999
0.99999
0.99999
0.99999
0.99999
0.99999
0.99999
0.99999
0.99999
0.99999
0.99999
0.99999
0.99999
0.99999
0.99999
0.99999
0.99999
0.99999
0.99999
0.99999
0.99999
0.99999
0.99999
0.99999
1
1
1
1
1
1
1
0.99999
0.99997
0.9999
0.99945
0.99615
0.96483
0.57401
0.0083429
0.00010787
3.6245e-06
4.4078e-07
2.4728e-07
2.8978e-07
5.5404e-07
1.1413e-06
2.7546e-06
6.0202e-06
1.1215e-05
1.687e-05
2.1315e-05
2.3661e-05
2.4296e-05
2.4117e-05
2.3581e-05
2.3011e-05
2.2384e-05
2.1873e-05
2.1466e-05
2.1159e-05
2.0815e-05
2.0475e-05
2.015e-05
1.986e-05
1.9671e-05
1.9445e-05
1.8893e-05
1.8079e-05
1.7744e-05
1.9608e-05
2.7156e-05
1.9942e-05
9.1914e-06
2.7122e-06
1.0148e-06
5.6474e-07
7.24e-07
9.8036e-07
1.239e-06
1.3601e-06
1.4071e-06
1.4189e-06
1.4041e-06
1.3719e-06
1.3321e-06
1.2933e-06
1.2586e-06
1.229e-06
1.2035e-06
1.1811e-06
1.1606e-06
1.1414e-06
1.1229e-06
1.105e-06
1.0876e-06
1.0705e-06
1.0539e-06
1.0378e-06
1.022e-06
1.0067e-06
9.9175e-07
9.772e-07
9.6304e-07
9.4925e-07
9.3583e-07
9.2277e-07
9.1007e-07
8.9774e-07
8.8577e-07
8.7416e-07
8.6291e-07
8.5204e-07
8.4153e-07
8.314e-07
8.2164e-07
8.1226e-07
8.0326e-07
7.9464e-07
7.8639e-07
7.7852e-07
7.7103e-07
7.6391e-07
7.5715e-07
7.5076e-07
7.4472e-07
7.3903e-07
7.3368e-07
7.2866e-07
7.2396e-07
7.1957e-07
7.1548e-07
7.1167e-07
7.0815e-07
7.0489e-07
7.0189e-07
6.9913e-07
6.9661e-07
6.9431e-07
6.9223e-07
6.9035e-07
6.8866e-07
6.8716e-07
6.8584e-07
6.8467e-07
6.8368e-07
6.829e-07
6.8237e-07
6.8183e-07
6.8037e-07
6.7711e-07
6.7614e-07
6.872e-07
7.1799e-07
7.3146e-07
5.8854e-07
4.7306e-07
5.5703e-07
6.7579e-07
1.0121e-06
1
1
1
1
1
1
1
1
1
1
1
1
1
1
1
1
1
1
1
1
1
1
1
1
1
1
1
1
1
1
1
1
1
1
1
1
1
1
1
1
1
1
1
1
1
1
1
1
1
1
1
1
1
1
1
1
1
1
1
1
1
1
1
1
1
1
1
1
1
1
1
1
1
1
1
1
1
1
1
1
1
1
1
1
1
1
1
1
1
1
1
1
1
1
1
1
1
1
1
1
1
1
1
1
1
1
1
1
1
1
1
1
1
1
1
1
1
1
1
1
1
1
1
1
1
1
1
1
1
1
1
1
1
1
1
1
1
1
1
1
1
1
1
1
1
1
1
1
1
1
1
1
1
1
1
1
1
1
1
1
1
1
1
1
1
1
1
1
1
1
1
1
1
1
1
1
1
1
1
1
1
1
1
1
1
1
1
1
1
1
1
1
1
1
1
1
1
1
1
1
1
1
1
1
1
1
1
1
1
1
1
1
1
1
1
1
1
1
1
1
1
1
1
1
1
1
1
1
1
1
0.99999
0.99999
0.99999
0.99999
0.99999
0.99999
0.99999
0.99999
0.99999
0.99999
0.99999
0.99999
0.99999
0.99999
0.99999
0.99999
0.99999
0.99999
0.99999
0.99999
0.99999
0.99999
0.99999
0.99999
0.99999
0.99999
0.99999
0.99999
0.99999
0.99999
0.99999
0.99999
0.99999
0.99999
0.99999
0.99999
1
1
1
1
0.99999
0.99999
0.99999
0.99998
0.99997
0.99995
0.99989
0.99959
0.9967
0.94883
0.12466
0.0012285
2.9376e-05
2.9843e-06
6.3115e-07
3.6165e-07
3.3372e-07
5.5214e-07
1.1735e-06
2.7386e-06
6.0446e-06
1.1308e-05
1.6985e-05
2.1136e-05
2.3299e-05
2.3832e-05
2.3651e-05
2.3177e-05
2.2702e-05
2.2252e-05
2.1829e-05
2.1378e-05
2.0999e-05
2.0658e-05
2.0398e-05
2.022e-05
2.0012e-05
1.9541e-05
1.882e-05
1.84e-05
1.9588e-05
2.4874e-05
2.3392e-05
1.5117e-05
6.4012e-06
2.3958e-06
1.0694e-06
8.1084e-07
7.7766e-07
8.7296e-07
9.5432e-07
1.1566e-06
1.301e-06
1.3788e-06
1.4007e-06
1.3845e-06
1.3505e-06
1.3108e-06
1.273e-06
1.2396e-06
1.2109e-06
1.1863e-06
1.1646e-06
1.1448e-06
1.1261e-06
1.1081e-06
1.0906e-06
1.0735e-06
1.0567e-06
1.0404e-06
1.0245e-06
1.009e-06
9.9396e-07
9.7929e-07
9.6502e-07
9.5114e-07
9.3765e-07
9.2453e-07
9.1179e-07
8.9942e-07
8.8743e-07
8.7581e-07
8.6456e-07
8.5369e-07
8.432e-07
8.3309e-07
8.2336e-07
8.1401e-07
8.0504e-07
7.9645e-07
7.8824e-07
7.804e-07
7.7293e-07
7.6582e-07
7.5908e-07
7.5269e-07
7.4664e-07
7.4094e-07
7.3556e-07
7.3051e-07
7.2577e-07
7.2133e-07
7.1718e-07
7.1331e-07
7.0972e-07
7.0638e-07
7.033e-07
7.0047e-07
6.9787e-07
6.9549e-07
6.9333e-07
6.9138e-07
6.8964e-07
6.8808e-07
6.867e-07
6.855e-07
6.8454e-07
6.8384e-07
6.8316e-07
6.8156e-07
6.7818e-07
6.7711e-07
6.8809e-07
7.1884e-07
7.3225e-07
5.8915e-07
4.7353e-07
5.576e-07
6.7648e-07
1.0132e-06
1
1
1
1
1
1
1
1
1
1
1
1
1
1
1
1
1
1
1
1
1
1
1
1
1
1
1
1
1
1
1
1
1
1
1
1
1
1
1
1
1
1
1
1
1
1
1
1
1
1
1
1
1
1
1
1
1
1
1
1
1
1
1
1
1
1
1
1
1
1
1
1
1
1
1
1
1
1
1
1
1
1
1
1
1
1
1
1
1
1
1
1
1
1
1
1
1
1
1
1
1
1
1
1
1
1
1
1
1
1
1
1
1
1
1
1
1
1
1
1
1
1
1
1
1
1
1
1
1
1
1
1
1
1
1
1
1
1
1
1
1
1
1
1
1
1
1
1
1
1
1
1
1
1
1
1
1
1
1
1
1
1
1
1
1
1
1
1
1
1
1
1
1
1
1
1
1
1
1
1
1
1
1
1
1
1
1
1
1
1
1
1
1
1
1
1
1
1
1
1
1
1
1
1
1
1
1
1
1
1
1
1
1
1
1
1
1
1
1
1
1
1
1
1
1
1
1
1
1
0.99999
0.99999
0.99999
0.99999
0.99999
0.99999
0.99999
0.99999
0.99999
0.99999
0.99999
0.99999
0.99999
0.99999
0.99999
0.99999
0.99999
0.99999
0.99999
0.99999
0.99999
0.99999
0.99999
0.99999
0.99999
0.99999
0.99999
0.99999
0.99999
0.99999
0.99999
0.99999
0.99999
0.99999
0.99999
0.99999
0.99999
0.99999
0.99999
0.99999
0.99999
0.99998
0.99997
0.99997
0.99998
0.99998
0.99999
0.99999
0.99999
0.99995
0.99955
0.9916
0.85052
0.036523
0.00078824
2.7619e-05
2.6127e-06
5.3032e-07
2.8155e-07
2.8734e-07
4.8305e-07
1.1167e-06
2.8264e-06
6.4523e-06
1.1723e-05
1.7199e-05
2.099e-05
2.2976e-05
2.3584e-05
2.3509e-05
2.3123e-05
2.2623e-05
2.2069e-05
2.1608e-05
2.1167e-05
2.0872e-05
2.069e-05
2.052e-05
2.0175e-05
1.9586e-05
1.9053e-05
1.9502e-05
2.2518e-05
2.5311e-05
2.2571e-05
1.3633e-05
7.3778e-06
2.9893e-06
1.747e-06
1.1555e-06
9.4146e-07
7.731e-07
8.3618e-07
9.2694e-07
1.1411e-06
1.2889e-06
1.3634e-06
1.3822e-06
1.3651e-06
1.3315e-06
1.2929e-06
1.2565e-06
1.2245e-06
1.1974e-06
1.1742e-06
1.1535e-06
1.1344e-06
1.1162e-06
1.0985e-06
1.0812e-06
1.0642e-06
1.0477e-06
1.0315e-06
1.0158e-06
1.0005e-06
9.8563e-07
9.7116e-07
9.5711e-07
9.4345e-07
9.3018e-07
9.1731e-07
9.0482e-07
8.9273e-07
8.8102e-07
8.697e-07
8.5876e-07
8.4821e-07
8.3805e-07
8.2827e-07
8.1888e-07
8.0987e-07
8.0124e-07
7.9299e-07
7.8511e-07
7.776e-07
7.7045e-07
7.6365e-07
7.5721e-07
7.511e-07
7.4533e-07
7.3988e-07
7.3475e-07
7.2992e-07
7.2539e-07
7.2115e-07
7.1719e-07
7.135e-07
7.1007e-07
7.069e-07
7.0397e-07
7.0128e-07
6.9883e-07
6.9659e-07
6.9458e-07
6.9277e-07
6.9115e-07
6.8974e-07
6.8858e-07
6.877e-07
6.8684e-07
6.8509e-07
6.8156e-07
6.8038e-07
6.913e-07
7.2209e-07
7.3547e-07
5.9172e-07
4.756e-07
5.5999e-07
6.7933e-07
1.0173e-06
1
1
1
1
1
1
1
1
1
1
1
1
1
1
1
1
1
1
1
1
1
1
1
1
1
1
1
1
1
1
1
1
1
1
1
1
1
1
1
1
1
1
1
1
1
1
1
1
1
1
1
1
1
1
1
1
1
1
1
1
1
1
1
1
1
1
1
1
1
1
0.99999
0.99999
0.99999
0.99999
0.99999
0.99999
1
1
1
1
1
1
1
1
1
1
1
1
1
1
1
1
1
1
1
1
1
1
1
1
1
1
1
1
1
1
1
1
1
1
1
1
1
1
1
1
1
1
1
1
1
1
1
1
1
1
1
1
1
1
1
1
1
1
1
1
1
1
1
1
1
1
1
1
1
1
1
1
1
1
1
1
1
1
1
1
1
1
1
1
1
1
1
1
1
1
1
1
1
1
1
1
1
1
1
1
1
1
1
1
1
1
1
1
1
1
1
1
1
1
1
1
1
1
1
1
1
1
1
1
1
1
1
1
1
1
1
1
1
1
1
1
1
1
1
1
1
1
1
1
1
1
1
1
1
1
1
1
1
1
1
0.99999
0.99999
0.99999
0.99999
0.99999
0.99999
0.99999
0.99999
0.99999
0.99999
0.99999
0.99999
0.99998
0.99998
0.99998
0.99998
0.99998
0.99998
0.99998
0.99998
0.99998
0.99998
0.99998
0.99998
0.99999
0.99999
0.99999
0.99999
0.99999
0.99999
0.99999
0.99999
0.99999
0.99999
0.99999
0.99999
0.99999
0.99998
0.99997
0.99997
0.99996
0.99997
0.99998
0.99999
0.99999
1
1
0.99999
0.99998
0.99988
0.99883
0.98355
0.77622
0.023535
0.00046589
1.53e-05
1.3012e-06
3.045e-07
1.8319e-07
2.3856e-07
5.0415e-07
1.3152e-06
3.2156e-06
7.1067e-06
1.2374e-05
1.7613e-05
2.1141e-05
2.2882e-05
2.3404e-05
2.3155e-05
2.2701e-05
2.2271e-05
2.1752e-05
2.1375e-05
2.1109e-05
2.0861e-05
2.0543e-05
2.0081e-05
1.9539e-05
1.9459e-05
2.0772e-05
2.501e-05
2.8374e-05
2.3898e-05
1.8371e-05
1.0133e-05
5.7875e-06
2.8219e-06
1.9261e-06
1.1537e-06
9.1345e-07
7.5579e-07
8.2542e-07
9.1708e-07
1.1258e-06
1.2686e-06
1.3408e-06
1.3593e-06
1.3429e-06
1.3106e-06
1.2735e-06
1.2387e-06
1.2086e-06
1.1831e-06
1.1611e-06
1.1413e-06
1.1227e-06
1.1047e-06
1.0871e-06
1.0699e-06
1.0532e-06
1.0368e-06
1.0208e-06
1.0053e-06
9.9021e-07
9.7554e-07
9.6129e-07
9.4746e-07
9.3404e-07
9.2102e-07
9.0841e-07
8.962e-07
8.8439e-07
8.7297e-07
8.6195e-07
8.5133e-07
8.411e-07
8.3126e-07
8.2181e-07
8.1275e-07
8.0406e-07
7.9575e-07
7.8782e-07
7.8025e-07
7.7303e-07
7.6617e-07
7.5966e-07
7.5348e-07
7.4763e-07
7.4209e-07
7.3687e-07
7.3196e-07
7.2734e-07
7.2301e-07
7.1895e-07
7.1517e-07
7.1166e-07
7.084e-07
7.054e-07
7.0264e-07
7.0012e-07
6.9783e-07
6.9576e-07
6.939e-07
6.9226e-07
6.9089e-07
6.8982e-07
6.8878e-07
6.8686e-07
6.8318e-07
6.8185e-07
6.9268e-07
7.2341e-07
7.3672e-07
5.9267e-07
4.7634e-07
5.6081e-07
6.8028e-07
1.0187e-06
1
1
1
1
1
1
1
1
1
1
1
1
1
1
1
1
1
1
1
1
1
1
1
1
1
1
1
1
1
1
1
1
1
1
1
1
1
1
1
1
1
1
1
1
1
1
1
1
1
1
1
1
1
1
1
1
1
1
1
1
1
1
1
1
0.99999
0.99999
0.99999
0.99999
0.99999
0.99999
0.99999
0.99999
0.99999
0.99999
0.99999
0.99999
1
1
1
1
1
1
1
1
1
1
1
1
1
1
1
1
1
1
1
1
1
1
1
1
1
1
1
1
1
1
1
1
1
1
1
1
1
1
1
1
1
1
1
1
1
1
1
1
1
1
1
1
1
1
1
1
1
1
1
1
1
1
1
1
1
1
1
1
1
1
1
1
1
1
1
1
1
1
1
1
1
1
1
1
1
1
1
1
1
1
1
1
1
1
1
1
1
1
1
1
1
1
1
1
1
1
1
1
1
1
1
1
1
1
1
1
1
1
1
1
1
1
1
1
1
1
1
1
1
1
1
1
1
1
1
1
1
1
1
1
1
1
1
1
1
1
1
1
1
1
1
1
1
1
0.99999
0.99999
0.99999
0.99999
0.99999
0.99999
0.99999
0.99999
0.99999
0.99999
0.99999
0.99998
0.99998
0.99998
0.99998
0.99998
0.99998
0.99998
0.99998
0.99998
0.99998
0.99998
0.99998
0.99998
0.99998
0.99998
0.99998
0.99998
0.99998
0.99998
0.99999
0.99999
0.99999
0.99999
0.99999
0.99999
0.99998
0.99997
0.99997
0.99996
0.99996
0.99996
0.99998
0.99999
0.99999
1
1
1
1
1
0.99999
0.99996
0.99978
0.99819
0.97488
0.61866
0.0086384
0.000141
5.3292e-06
5.8586e-07
2.1437e-07
1.9273e-07
3.2349e-07
6.6412e-07
1.653e-06
3.7807e-06
7.9547e-06
1.3231e-05
1.8152e-05
2.1308e-05
2.2653e-05
2.3034e-05
2.2904e-05
2.238e-05
2.1931e-05
2.1545e-05
2.1238e-05
2.0904e-05
2.0525e-05
1.996e-05
1.9524e-05
1.9686e-05
2.1269e-05
2.5145e-05
2.6857e-05
2.8038e-05
2.1961e-05
1.6348e-05
9.2898e-06
6.0212e-06
2.7944e-06
1.8774e-06
1.1318e-06
9.0144e-07
7.4709e-07
8.1474e-07
9.0553e-07
1.114e-06
1.2586e-06
1.3314e-06
1.3482e-06
1.3286e-06
1.2934e-06
1.2556e-06
1.2217e-06
1.1931e-06
1.169e-06
1.1478e-06
1.1283e-06
1.1098e-06
1.0919e-06
1.0745e-06
1.0576e-06
1.041e-06
1.0248e-06
1.009e-06
9.9372e-07
9.7885e-07
9.6442e-07
9.5041e-07
9.3683e-07
9.2367e-07
9.1093e-07
8.986e-07
8.8668e-07
8.7517e-07
8.6406e-07
8.5336e-07
8.4305e-07
8.3314e-07
8.2362e-07
8.1449e-07
8.0574e-07
7.9737e-07
7.8936e-07
7.8172e-07
7.7443e-07
7.675e-07
7.609e-07
7.5464e-07
7.487e-07
7.4308e-07
7.3777e-07
7.3277e-07
7.2806e-07
7.2364e-07
7.195e-07
7.1564e-07
7.1205e-07
7.0872e-07
7.0566e-07
7.0284e-07
7.0027e-07
6.9793e-07
6.9582e-07
6.9395e-07
6.9235e-07
6.9107e-07
6.8984e-07
6.8774e-07
6.8388e-07
6.8241e-07
6.9311e-07
7.2373e-07
7.3693e-07
5.9276e-07
4.7635e-07
5.6077e-07
6.802e-07
1.0185e-06
1
1
1
1
1
1
1
1
1
1
1
1
1
1
1
1
1
1
1
1
1
1
1
1
1
1
1
1
1
1
1
1
1
1
1
1
1
1
1
1
1
1
1
1
1
1
1
1
1
1
1
1
1
1
1
1
1
1
1
1
0.99999
0.99999
0.99999
0.99999
0.99999
0.99999
0.99999
0.99999
0.99999
0.99999
0.99999
0.99999
0.99999
0.99999
0.99999
0.99999
0.99999
0.99999
0.99999
0.99999
0.99999
0.99999
0.99999
0.99999
0.99999
0.99999
0.99999
0.99999
0.99999
0.99999
0.99999
0.99999
0.99999
0.99999
0.99999
0.99999
0.99999
1
1
1
1
1
1
1
1
1
1
1
1
1
1
1
1
1
1
1
1
1
1
1
1
1
1
1
1
1
1
1
1
1
1
1
1
1
1
1
1
1
1
1
1
1
1
1
1
1
1
1
1
1
1
1
1
1
1
1
1
1
1
1
1
1
1
1
1
1
1
1
1
1
1
1
1
1
1
1
1
1
1
1
1
1
1
1
1
1
1
1
1
1
1
1
1
1
1
1
1
1
1
1
1
1
1
1
1
1
1
1
1
1
1
1
1
1
1
1
1
1
1
1
1
1
1
1
1
1
1
1
1
0.99999
0.99999
0.99999
0.99999
0.99999
0.99999
0.99999
0.99999
0.99999
0.99998
0.99998
0.99998
0.99998
0.99997
0.99997
0.99997
0.99997
0.99997
0.99997
0.99997
0.99997
0.99997
0.99997
0.99997
0.99997
0.99997
0.99997
0.99997
0.99998
0.99998
0.99998
0.99998
0.99999
0.99999
0.99999
0.99999
0.99998
0.99997
0.99996
0.99995
0.99995
0.99996
0.99997
0.99998
0.99999
0.99999
1
1
0.99999
1
1
1
0.99999
0.99999
0.99995
0.99967
0.99671
0.94683
0.18399
0.0020901
4.8442e-05
3.386e-06
6.3216e-07
3.0927e-07
2.6658e-07
4.1391e-07
7.9301e-07
1.9252e-06
4.4397e-06
8.7573e-06
1.3929e-05
1.8506e-05
2.1404e-05
2.2714e-05
2.2873e-05
2.261e-05
2.2167e-05
2.1752e-05
2.1334e-05
2.0992e-05
2.0481e-05
1.9974e-05
1.9535e-05
1.9708e-05
2.078e-05
2.3372e-05
2.8194e-05
2.9833e-05
2.9952e-05
2.2509e-05
1.6293e-05
9.1041e-06
5.871e-06
2.7411e-06
1.8469e-06
1.117e-06
8.9511e-07
7.4985e-07
8.2976e-07
9.3332e-07
1.1515e-06
1.2916e-06
1.3481e-06
1.3462e-06
1.3147e-06
1.2754e-06
1.2382e-06
1.2062e-06
1.1791e-06
1.1555e-06
1.1345e-06
1.1151e-06
1.0968e-06
1.0791e-06
1.0619e-06
1.0451e-06
1.0287e-06
1.0128e-06
9.9725e-07
9.8218e-07
9.6755e-07
9.5337e-07
9.3963e-07
9.2632e-07
9.1344e-07
9.0098e-07
8.8894e-07
8.7733e-07
8.6612e-07
8.5532e-07
8.4493e-07
8.3493e-07
8.2533e-07
8.1612e-07
8.0728e-07
7.9882e-07
7.9074e-07
7.8301e-07