/*--------------------------------*- C++ -*----------------------------------*\
| =========                 |                                                 |
| \\      /  F ield         | OpenFOAM: The Open Source CFD Toolbox           |
|  \\    /   O peration     | Version:  5.x                                   |
|   \\  /    A nd           | Web:      www.OpenFOAM.org                      |
|    \\/     M anipulation  |                                                 |
\*---------------------------------------------------------------------------*/
FoamFile
{
    version     2.0;
    format      ascii;
    class       volScalarField;
    location    "155";
    object      gamma;
}
// * * * * * * * * * * * * * * * * * * * * * * * * * * * * * * * * * * * * * //

dimensions      [0 0 0 0 0 0 0];

internalField   nonuniform List<scalar> 
86400
(
1.896e-07
2.626e-07
4.562e-07
1.078e-06
2.746e-06
5.086e-06
5.938e-06
7.185e-06
9.165e-06
9.374e-06
9.215e-06
6.222e-06
3.664e-06
1.592e-06
2.393e-06
6.455e-06
4.367e-05
0.0001111
0.0002423
0.0001811
0.0001778
0.0002192
0.0004339
0.0004746
0.0005844
0.001038
0.001405
0.002076
0.002576
0.003048
0.00286
0.002765
0.002576
0.002362
0.002301
0.002687
0.002666
0.002549
0.002061
0.001988
0.001879
0.002056
0.001801
0.001374
0.001275
0.001446
0.001986
0.002427
0.002756
0.00255
0.002593
0.002757
0.002925
0.003015
0.003076
0.003473
0.004099
0.004581
0.004828
0.004788
0.004196
0.004188
0.003863
0.003901
0.004575
0.005693
0.006711
0.007074
0.005668
0.004991
0.005626
0.007089
0.009422
0.008639
0.007413
0.005782
0.004221
0.003769
0.0042
0.004673
0.006014
0.006656
0.006147
0.005453
0.005148
0.004598
0.004851
0.004946
0.005486
0.005983
0.005608
0.006236
0.007075
0.00935
0.01052
0.01144
0.01021
0.01023
0.01042
0.01009
0.009359
0.009648
0.008604
0.007311
0.004716
0.004365
0.004776
0.007316
0.00796
0.007897
0.005988
0.005202
0.004357
0.003325
0.002168
0.001562
0.001334
0.001262
0.001149
0.001107
0.001205
0.001324
0.001598
0.001745
0.001642
0.001506
0.001355
0.00125
0.001121
0.0009353
0.0006422
0.0005037
0.0004316
0.0003873
0.00036
0.0003812
0.0004552
0.00057
0.0002842
6.799e-05
1.792e-05
1.488e-05
2.026e-05
2.403e-05
1.307e-05
2.743e-06
4.382e-07
1.063e-07
7.174e-08
5.842e-08
1.625e-07
3.476e-07
1.542e-06
3.614e-06
1.917e-05
6.666e-05
0.0001996
0.0003099
0.05794
0.9931
2.61e-07
3.168e-07
5.106e-07
9.604e-07
2.072e-06
3.34e-06
3.599e-06
4.044e-06
4.418e-06
3.01e-06
2.687e-06
2.364e-06
2.282e-06
2.443e-06
4.646e-06
1.081e-05
3.945e-05
0.0001091
0.0002625
0.0003105
0.0003985
0.0006573
0.001266
0.001675
0.00209
0.002452
0.002138
0.001953
0.001812
0.001692
0.0015
0.001662
0.001885
0.002156
0.002498
0.003124
0.003312
0.003601
0.003466
0.00352
0.003235
0.003238
0.002906
0.002431
0.002278
0.002627
0.003262
0.004031
0.004859
0.005129
0.005736
0.006655
0.007618
0.008392
0.008544
0.007528
0.006294
0.005385
0.004753
0.004585
0.004459
0.004657
0.004237
0.004332
0.005174
0.007505
0.009239
0.01014
0.008704
0.008301
0.009545
0.01017
0.009211
0.006667
0.004887
0.00432
0.005187
0.006733
0.008038
0.008437
0.009636
0.01043
0.01138
0.01161
0.01177
0.01106
0.01187
0.01243
0.01495
0.01818
0.0196
0.02211
0.02289
0.02216
0.02009
0.01845
0.01601
0.01366
0.01075
0.009466
0.009209
0.01136
0.01476
0.01323
0.007018
0.005119
0.004911
0.006098
0.008079
0.008897
0.006533
0.006026
0.006278
0.006426
0.005639
0.00445
0.003559
0.003161
0.002838
0.002748
0.002764
0.002563
0.002486
0.002374
0.002241
0.002441
0.00257
0.002689
0.002441
0.001939
0.001258
0.0009915
0.0008573
0.0009748
0.001116
0.00107
0.0009978
0.0008786
0.0004314
0.0001371
7.199e-05
4.787e-05
3.324e-05
1.992e-05
7.585e-06
1.654e-06
5.464e-07
3.849e-07
7.162e-07
1.122e-06
2.338e-06
4.82e-06
2.011e-05
6.121e-05
0.0003681
0.002416
0.01707
0.2221
0.9181
0.9985
4.75e-07
5.431e-07
7.241e-07
1.014e-06
1.826e-06
2.478e-06
2.432e-06
2.604e-06
2.445e-06
1.719e-06
1.736e-06
2.299e-06
3.122e-06
5.059e-06
1.019e-05
3.044e-05
9.818e-05
0.0003211
0.0006214
0.000841
0.000803
0.001271
0.001995
0.002699
0.003771
0.005264
0.005071
0.004566
0.004013
0.003141
0.002801
0.003532
0.004044
0.004163
0.003851
0.003768
0.003476
0.003762
0.003646
0.0033
0.002516
0.002288
0.002043
0.002152
0.002697
0.003886
0.005251
0.007117
0.009524
0.008908
0.007199
0.005631
0.004593
0.004253
0.004794
0.004401
0.003944
0.003486
0.003281
0.003325
0.003669
0.004185
0.004206
0.005088
0.005647
0.006531
0.00724
0.007703
0.007
0.007042
0.007674
0.006547
0.005141
0.004437
0.004483
0.006793
0.01163
0.01643
0.01806
0.01858
0.01964
0.02113
0.02367
0.02549
0.02836
0.02784
0.02794
0.02697
0.0218
0.01592
0.01048
0.007261
0.006724
0.008449
0.01005
0.01164
0.0125
0.009573
0.007068
0.006344
0.006356
0.007779
0.01044
0.008583
0.004753
0.004021
0.00493
0.007368
0.01198
0.01249
0.009923
0.01107
0.01306
0.01402
0.0117
0.008886
0.006174
0.004903
0.004064
0.003883
0.003469
0.003315
0.003031
0.002662
0.002341
0.002466
0.002488
0.002596
0.002394
0.001971
0.001407
0.001163
0.001014
0.001249
0.001508
0.00129
0.001027
0.000737
0.0003846
0.0001463
8.54e-05
4.818e-05
3.176e-05
2.104e-05
1.147e-05
4.433e-06
2.086e-06
2.043e-06
4.388e-06
1.16e-05
3.633e-05
8.179e-05
0.0002636
0.0009243
0.006316
0.06458
0.5752
0.96
0.998
1
9.76e-07
9.966e-07
1.071e-06
1.135e-06
1.541e-06
1.566e-06
1.295e-06
1.279e-06
1.27e-06
1.172e-06
1.648e-06
1.648e-06
1.679e-06
3.373e-06
9.711e-06
2.532e-05
8.16e-05
0.0001747
0.0001319
0.0001174
9.695e-05
0.0001137
0.0002178
0.0003923
0.0007218
0.001458
0.002119
0.002433
0.00266
0.002494
0.002399
0.003661
0.005055
0.005924
0.005302
0.004678
0.004024
0.004524
0.00459
0.004053
0.003048
0.002986
0.003381
0.004836
0.005751
0.006161
0.005108
0.004715
0.005135
0.004635
0.00325
0.002464
0.002275
0.002162
0.002574
0.002201
0.001666
0.001437
0.001722
0.002319
0.003134
0.004132
0.004776
0.005832
0.006064
0.006166
0.005776
0.005438
0.004784
0.006365
0.008893
0.008029
0.007276
0.007463
0.006895
0.01149
0.01882
0.0223
0.01916
0.02003
0.01688
0.01416
0.01219
0.009771
0.00834
0.008224
0.007928
0.00759
0.006714
0.006198
0.005527
0.004717
0.005251
0.006778
0.008037
0.009049
0.01041
0.007306
0.005199
0.004584
0.004857
0.006382
0.009749
0.008879
0.004981
0.003119
0.00284
0.003991
0.005881
0.006428
0.0053
0.005371
0.005058
0.007112
0.008022
0.009059
0.008243
0.008672
0.007228
0.007206
0.005922
0.005569
0.004551
0.003775
0.003272
0.003495
0.003848
0.004251
0.004248
0.00373
0.002815
0.002465
0.002351
0.002584
0.002465
0.001531
0.0007916
0.0003069
0.0001885
0.0001004
7.797e-05
4.827e-05
3.439e-05
2.36e-05
1.777e-05
1.218e-05
1.127e-05
2.664e-05
0.0001095
0.0003242
0.0009113
0.002346
0.006929
0.03183
0.2314
0.8445
0.9827
0.9996
1
1
2.515e-06
2.08e-06
1.819e-06
1.609e-06
1.516e-06
1.28e-06
8.524e-07
7.957e-07
9.453e-07
1.069e-06
1.87e-06
1.31e-06
5.402e-07
8.807e-07
3.868e-06
1.733e-05
0.0001359
0.0001465
4.707e-05
2.164e-05
2.107e-05
2.571e-05
5.489e-05
6.975e-05
0.000134
0.000429
0.001566
0.004232
0.007915
0.005726
0.003216
0.002917
0.002561
0.002314
0.002139
0.001857
0.001427
0.001983
0.003146
0.004211
0.002981
0.001709
0.0008841
0.000761
0.0006454
0.0006137
0.000582
0.000815
0.001541
0.002358
0.002017
0.001334
0.001532
0.00185
0.002421
0.001946
0.001263
0.001178
0.001649
0.002881
0.004949
0.007887
0.01099
0.01342
0.01129
0.007376
0.005393
0.004007
0.002866
0.003054
0.004174
0.003822
0.005014
0.007653
0.008435
0.009147
0.009665
0.006581
0.00386
0.003259
0.00188
0.001044
0.0008332
0.0008596
0.001174
0.002193
0.003201
0.003169
0.002894
0.002822
0.002326
0.002293
0.00312
0.004336
0.006551
0.007464
0.008223
0.005649
0.004398
0.003121
0.001774
0.001276
0.001829
0.0025
0.003102
0.00383
0.004117
0.005136
0.006063
0.005714
0.003911
0.00329
0.002615
0.004312
0.004428
0.004638
0.003769
0.003745
0.002637
0.002996
0.002702
0.002711
0.002357
0.00193
0.001665
0.001653
0.001687
0.001996
0.002362
0.002549
0.002496
0.00238
0.002175
0.0019
0.001453
0.0007383
0.000314
0.0001377
8.984e-05
5.276e-05
4.786e-05
3.724e-05
4.119e-05
5.307e-05
7.361e-05
8.812e-05
0.0001114
0.0002075
0.0007427
0.002821
0.01054
0.04126
0.1883
0.6908
0.9485
0.9959
0.9998
1
1
1
4.345e-06
3.169e-06
2.606e-06
2.21e-06
1.555e-06
1.083e-06
7.816e-07
7.564e-07
1.161e-06
1.924e-06
4.548e-06
2.075e-06
4.779e-07
3.612e-07
2.727e-06
1.017e-05
7.949e-05
6.074e-05
1.901e-05
8.614e-06
1.768e-05
2.697e-05
5.783e-05
3.326e-05
3.184e-05
5.68e-05
0.0001575
0.0006714
0.002247
0.001944
0.0009784
0.0006694
0.0005286
0.0005057
0.0007109
0.0007614
0.0004503
0.0004415
0.0005911
0.000482
0.0001845
7.836e-05
2.107e-05
9.516e-06
6.147e-06
3.285e-06
1.48e-06
2.159e-06
6.628e-06
2.032e-05
3.346e-05
5.087e-05
0.0001083
0.0003472
0.0007187
0.0005942
0.000277
0.0002153
0.000329
0.0009287
0.002305
0.004272
0.005086
0.006186
0.005575
0.00373
0.004115
0.003563
0.002474
0.002351
0.00342
0.003117
0.004285
0.004866
0.002741
0.001144
0.0004519
0.0002488
0.0002305
0.000374
0.000408
0.0003238
0.0002465
0.0002947
0.000528
0.001383
0.002911
0.003402
0.003857
0.004338
0.004701
0.003731
0.003674
0.003401
0.003125
0.003182
0.003064
0.002747
0.003386
0.003291
0.002134
0.001314
0.001295
0.001621
0.002607
0.003451
0.002584
0.002893
0.003098
0.002817
0.001395
0.0008161
0.0004725
0.0008492
0.001219
0.001797
0.001765
0.001631
0.001221
0.001382
0.001194
0.001133
0.0009819
0.0008085
0.0007198
0.0007099
0.0007029
0.0008508
0.001041
0.001179
0.001181
0.001158
0.001092
0.0008976
0.000779
0.0004683
0.0003255
0.0002034
0.0001642
0.0001061
0.0001133
0.0001178
0.000142
0.0002033
0.0003506
0.0005799
0.001257
0.00352
0.01315
0.05186
0.2186
0.6512
0.9326
0.9912
0.9996
1
1
1
1
1
5.824e-06
3.512e-06
2.485e-06
1.754e-06
1.424e-06
1.223e-06
1.239e-06
1.481e-06
3.116e-06
5.491e-06
1.076e-05
4.357e-06
4.604e-07
2.372e-07
1.238e-06
6.901e-06
0.0001088
0.0002496
0.0001109
6.888e-05
0.0002019
0.0002414
0.0003638
0.0001177
5.515e-05
6.149e-05
0.000133
0.0004106
0.001536
0.001527
0.0008719
0.0003772
0.0002715
0.0003075
0.000513
0.000557
0.0002339
0.0001536
0.0002093
0.0001461
3.145e-05
5.752e-06
4.974e-07
8.834e-08
4.101e-08
9.973e-09
3.854e-09
8.317e-09
6.298e-08
4.401e-07
1.544e-06
1.863e-06
2.247e-06
4.412e-06
5.078e-06
6.638e-06
9.407e-06
2.366e-05
9.719e-05
0.0004758
0.001236
0.002631
0.003731
0.006199
0.006527
0.00364
0.003888
0.003159
0.002285
0.00166
0.002032
0.001322
0.001675
0.001749
0.001061
0.0004204
0.0001519
8.791e-05
7.836e-05
0.0001429
0.0002218
0.0002726
0.0002994
0.000399
0.000547
0.0006408
0.000813
0.0007933
0.001379
0.003531
0.005138
0.004169
0.002615
0.001628
0.001077
0.0007147
0.000422
0.0003099
0.0003622
0.0004036
0.0004867
0.0003931
0.0004986
0.001088
0.003169
0.004694
0.003792
0.0036
0.003188
0.002059
0.0009777
0.0004017
0.0002077
0.0003657
0.000757
0.001081
0.001011
0.0007493
0.0005249
0.0005757
0.0005619
0.0005882
0.0005798
0.0005219
0.0004412
0.0003554
0.0002854
0.000294
0.0003471
0.0004504
0.000516
0.000545
0.000513
0.0003789
0.0003543
0.00039
0.0004604
0.0004934
0.0006329
0.0005444
0.000614
0.0008335
0.001417
0.002975
0.009043
0.02645
0.07339
0.1932
0.4994
0.8234
0.954
0.9927
0.9995
1
1
1
1
1
1
1
1.022e-05
4.38e-06
2.422e-06
1.589e-06
1.503e-06
1.566e-06
2.614e-06
4.351e-06
6.541e-06
5.15e-06
7.15e-06
2.459e-06
2.686e-07
2.455e-07
1.57e-06
1.158e-05
0.0002177
0.0009906
0.001058
0.001658
0.003445
0.003475
0.003763
0.001274
0.0004617
0.0001671
0.0001031
0.0001484
0.0004126
0.000566
0.0004966
0.0003741
0.0002994
0.0004244
0.0008142
0.001015
0.0004336
0.000288
0.000317
8.549e-05
8.726e-06
5.441e-07
2.915e-08
3.763e-09
3.209e-09
8.439e-10
3.291e-10
4.868e-10
1.219e-09
7.029e-09
3.157e-08
4.165e-08
6.912e-08
1.716e-07
1.811e-07
2.138e-07
5.358e-07
3.078e-06
2.636e-05
0.0002488
0.0008752
0.002157
0.003609
0.008047
0.008557
0.00476
0.003732
0.002442
0.001386
0.000825
0.0006265
0.000361
0.0003611
0.0004648
0.0004453
0.0002764
0.0001024
7.128e-05
7.136e-05
0.0001546
0.0002861
0.0004797
0.0006512
0.0007802
0.0006583
0.0004472
0.0004199
0.000407
0.0007212
0.002479
0.005149
0.004604
0.001826
0.001096
0.0006991
0.00047
0.0003698
0.0003493
0.0003489
0.0004382
0.0008181
0.0008998
0.0009613
0.0009557
0.001267
0.001251
0.001179
0.001419
0.001603
0.001132
0.0004474
9.538e-05
5.365e-05
0.0001155
0.0003706
0.0006507
0.0007642
0.0003989
0.0002463
0.0002585
0.0002681
0.0002736
0.0002754
0.0002709
0.0002513
0.0002203
0.0001909
0.0002066
0.0002594
0.0003668
0.000484
0.0005592
0.0005346
0.0004118
0.0004582
0.0007182
0.001445
0.002545
0.0046
0.00685
0.01397
0.03026
0.06614
0.1219
0.3059
0.6804
0.8749
0.9629
0.991
0.9986
0.9998
1
1
1
1
1
1
1
1
1
1.876e-05
5.058e-06
2.107e-06
1.218e-06
1.323e-06
1.946e-06
6.409e-06
7.359e-06
5.432e-06
2.718e-06
1.752e-06
8.132e-07
3.239e-07
6.985e-07
5.372e-06
3.096e-05
0.0001292
0.0003287
0.0003479
0.00045
0.001364
0.004014
0.00916
0.009147
0.006468
0.001782
0.0004752
0.0002306
0.0003018
0.0004616
0.0007221
0.0006505
0.0004306
0.0005309
0.0007558
0.0008826
0.0004531
0.0003483
0.0004923
4.964e-05
1.9e-06
4.668e-08
1.78e-09
3.86e-10
1.703e-09
1.23e-09
6.889e-10
6.602e-10
6.623e-10
9.912e-10
4.764e-09
1.004e-08
2.964e-08
4.634e-08
2.839e-08
1.447e-08
3.1e-08
2.945e-07
5.346e-06
0.0001183
0.0007539
0.002136
0.003183
0.005571
0.004443
0.001944
0.001058
0.0006495
0.0002699
0.0001636
0.000101
6.002e-05
5.919e-05
0.0001099
0.0001482
0.0003019
0.0003038
0.0003809
0.0005702
0.002094
0.009205
0.03657
0.08942
0.09005
0.04691
0.01981
0.01223
0.01391
0.02069
0.04028
0.05251
0.04265
0.02575
0.02136
0.01293
0.01448
0.01737
0.01316
0.01051
0.005037
0.004344
0.002254
0.002008
0.001438
0.001167
0.0008686
0.00105
0.0007908
0.0006821
0.000394
0.0001245
3.037e-05
3.03e-05
3.167e-05
7.484e-05
0.0001254
0.0001722
0.0001053
8.232e-05
6.963e-05
7.049e-05
7.957e-05
9.272e-05
0.0001073
0.0001132
0.0001099
0.0001068
0.0001294
0.0002052
0.0004182
0.0009291
0.001794
0.002617
0.003366
0.005543
0.01151
0.0285
0.06123
0.1122
0.2168
0.515
0.7432
0.8917
0.9597
0.9874
0.997
0.9993
0.9998
1
1
1
1
1
1
1
1
1
1
1
1
1.628e-05
4.243e-06
2.156e-06
1.552e-06
2.296e-06
4.12e-06
8.339e-06
4.324e-06
2.03e-06
1.132e-06
6.01e-07
7.096e-07
9.303e-07
3.677e-06
3.058e-05
9.583e-05
9.56e-05
4.637e-05
1.878e-05
1.29e-05
4.388e-05
0.0002842
0.002088
0.007784
0.01082
0.00315
0.0006098
0.0002432
0.0002276
0.0005663
0.001318
0.001202
0.0005761
0.0004495
0.0003417
0.0004807
0.0006418
0.0009017
0.0009809
5.307e-05
1.16e-06
1.844e-08
1.025e-09
5.183e-10
5.773e-09
1.149e-08
5.919e-09
2.016e-09
3.338e-10
1.407e-10
7.946e-10
4.364e-09
3.784e-08
9.275e-08
2.426e-08
3.916e-09
5.057e-09
5.353e-08
2.777e-06
0.0001323
0.0007862
0.001608
0.0009649
0.0008498
0.0004124
0.0002047
0.0001352
0.0001111
7.424e-05
9.223e-05
9.538e-05
0.0001109
0.0002264
0.001025
0.002172
0.007037
0.01972
0.1053
0.461
0.8258
0.9247
0.9486
0.9638
0.9767
0.9818
0.9875
0.9911
0.9911
0.9879
0.9881
0.9882
0.989
0.9905
0.9899
0.9853
0.9853
0.9853
0.9816
0.9709
0.9175
0.7312
0.3344
0.1058
0.0303
0.008509
0.003001
0.002478
0.001223
0.0007861
0.0003871
9.345e-05
2.887e-05
3.821e-05
3.187e-05
8.509e-05
0.0001866
0.0003968
0.0003734
0.0003871
0.000286
0.0002962
0.000381
0.0005329
0.0007658
0.0009971
0.001178
0.001384
0.001932
0.003587
0.007418
0.01707
0.03458
0.05783
0.09264
0.2093
0.4859
0.7189
0.8667
0.9465
0.9826
0.995
0.9984
0.9995
0.9998
0.9999
1
1
1
1
1
1
1
1
1
1
1
1
1
1
1
7.156e-06
2.147e-06
1.626e-06
2.209e-06
5.536e-06
1.086e-05
7.464e-06
2.098e-06
6.887e-07
4.808e-07
4.109e-07
1.015e-06
3.836e-06
2.764e-05
0.0001002
0.0001819
4.637e-05
3.712e-06
5.778e-07
3.475e-07
1.992e-06
2.384e-05
0.0005851
0.004492
0.01048
0.004275
0.001731
0.0007793
0.0005936
0.001148
0.001685
0.0007949
0.0001833
5.491e-05
3.703e-05
5.528e-05
0.0001656
0.000523
0.0007762
8.602e-05
2.912e-06
5.739e-08
4.792e-09
3.662e-09
2.635e-08
5.221e-08
3.325e-08
8.001e-09
8.409e-10
2.646e-10
1.305e-09
1.261e-08
2.729e-07
9.275e-07
2.152e-07
1.85e-08
1.527e-08
1.386e-07
6.783e-06
0.0003385
0.001248
0.0009833
0.0003099
0.0002035
0.000139
0.0001077
9.273e-05
8.854e-05
9.919e-05
0.0002065
0.0005179
0.001761
0.008765
0.04834
0.1461
0.5346
0.8147
0.9608
0.9894
0.998
0.9992
0.9995
0.9997
0.9999
0.9999
1
1
1
1
1
1
1
1
1
1
1
1
1
0.9999
0.9997
0.9982
0.993
0.9838
0.9615
0.8743
0.5641
0.2305
0.04677
0.01464
0.003454
0.001353
0.0005057
0.0007823
0.0006018
0.0009327
0.001648
0.004455
0.004927
0.005682
0.003753
0.003381
0.003913
0.005516
0.009387
0.01732
0.02849
0.04493
0.07721
0.1889
0.4577
0.7153
0.8659
0.9513
0.9812
0.9935
0.9972
0.9985
0.9993
0.9998
0.9999
1
1
1
1
1
1
1
1
1
1
1
1
1
1
1
1
1
1
1
1
2.069e-06
9.629e-07
1.206e-06
2.267e-06
4.463e-06
8.716e-06
3.599e-06
1.331e-06
6.44e-07
1.49e-06
1.716e-06
8.654e-06
4.398e-05
0.0001463
0.0002456
0.0002751
3.239e-05
1.557e-06
1.552e-07
6.346e-08
4.471e-07
1.74e-05
0.0008863
0.005898
0.01058
0.003753
0.002004
0.001181
0.001233
0.002158
0.002175
0.0006784
8.629e-05
1.99e-05
8.761e-06
1.343e-05
5.377e-05
0.0001662
0.0002113
3.723e-05
2.02e-06
1.271e-07
2.23e-08
2.081e-08
5.317e-08
5.632e-08
3.096e-08
4.718e-09
3.644e-10
1.297e-10
6.494e-10
1.758e-08
1.276e-06
1.395e-05
5.485e-06
3.88e-07
1.441e-07
7.294e-07
1.71e-05
0.0003842
0.000762
0.0003567
7.008e-05
3.565e-05
3.298e-05
5.912e-05
0.0001517
0.0005165
0.00196
0.007174
0.03858
0.1653
0.6798
0.8758
0.9554
0.9875
0.9974
0.9997
1
1
1
1
1
1
1
1
1
1
1
1
1
1
1
1
1
1
1
1
1
1
1
1
1
0.9999
0.9996
0.9982
0.9949
0.9824
0.9494
0.8245
0.3213
0.04028
0.02084
0.01019
0.01478
0.01851
0.03391
0.04251
0.03951
0.03345
0.04532
0.09081
0.2432
0.5723
0.749
0.885
0.954
0.9808
0.9929
0.9969
0.9984
0.9992
0.9998
0.9999
1
1
1
1
1
1
1
1
1
1
1
1
1
1
1
1
1
1
1
1
1
1
1
1
1
1
1.188e-06
1.01e-06
1.394e-06
2.742e-06
5.014e-06
8.395e-06
2.905e-06
1.433e-06
1.499e-06
2.959e-06
5.88e-06
3.589e-05
0.0001322
0.0002684
0.000422
0.0003061
5.577e-05
3.091e-06
2.899e-07
8.141e-08
4.44e-07
1.404e-05
0.000712
0.004619
0.01078
0.006195
0.005561
0.00452
0.00481
0.005753
0.004276
0.001297
0.0002604
6.533e-05
2.264e-05
2.393e-05
7.444e-05
0.0001607
0.0001668
5.208e-05
8.374e-06
1.031e-06
3.727e-07
2.639e-07
1.953e-07
1.765e-07
7.485e-08
2.747e-08
5.167e-09
3.785e-09
1.206e-08
1.404e-07
2.971e-06
1.393e-05
6.937e-06
1.138e-06
8.251e-07
3.636e-06
7.899e-05
0.0005069
0.0003889
0.000119
3.032e-05
3.647e-05
0.0001312
0.0007421
0.005158
0.04218
0.2873
0.7067
0.8993
0.9709
0.9926
0.9974
0.9996
0.9999
1
1
1
1
1
1
1
1
1
1
1
1
1
1
1
1
1
1
1
1
1
1
1
1
1
1
1
1
1
1
1
0.9999
0.9998
0.9995
0.9988
0.9973
0.9951
0.9894
0.9862
0.9798
0.9793
0.9802
0.9801
0.9823
0.9857
0.9902
0.9946
0.9973
0.9984
0.9994
0.9998
0.9999
1
1
1
1
1
1
1
1
1
1
1
1
1
1
1
1
1
1
1
1
1
1
1
1
1
1
1
1
1
1
1
1
1.536e-06
1.756e-06
3.06e-06
4.327e-06
7.015e-06
8.809e-06
4.908e-06
3.519e-06
8.196e-06
1.013e-05
2.015e-05
6.558e-05
0.0001758
0.000229
0.0003161
0.0003053
0.0001828
1.682e-05
2.125e-06
4.57e-07
1.629e-06
2.772e-05
0.0007763
0.003111
0.005228
0.004277
0.00592
0.007719
0.009639
0.01035
0.00772
0.003783
0.001535
0.0005708
0.000187
0.0001353
0.0002056
0.0003042
0.0003255
0.0002146
7.06e-05
1.919e-05
1.104e-05
7.629e-06
3.032e-06
3.012e-06
1.881e-06
1.047e-06
2.796e-07
1.669e-07
1.622e-07
5.594e-07
2.254e-06
4.612e-06
2.829e-06
1.535e-06
3.515e-06
3.214e-05
0.0003767
0.0009329
0.000543
0.0004264
0.0005163
0.002069
0.0197
0.1788
0.6554
0.9009
0.9728
0.9913
0.998
0.9998
1
1
1
1
1
1
1
1
1
1
1
1
1
1
1
1
1
1
1
1
1
1
1
1
1
1
1
1
1
1
1
1
1
1
1
1
1
1
1
1
1
1
1
0.9999
0.9999
0.9999
0.9999
0.9999
0.9999
1
1
1
1
1
1
1
1
1
1
1
1
1
1
1
1
1
1
1
1
1
1
1
1
1
1
1
1
1
1
1
1
1
1
1
1
1
1
1
5.198e-06
6.23e-06
1.221e-05
6.918e-06
1.025e-05
8.183e-06
9.252e-06
1.359e-05
3.778e-05
2.209e-05
3.832e-05
3.273e-05
8.986e-05
8.084e-05
0.0001374
8.886e-05
3.014e-05
1.537e-06
1.401e-07
3.115e-08
1.146e-07
2.039e-06
7.093e-05
0.0003262
0.0009408
0.001147
0.001767
0.003183
0.005081
0.005461
0.004607
0.003111
0.002549
0.001735
0.0009061
0.0005733
0.0007321
0.0009029
0.001181
0.001487
0.0005727
0.0002516
0.0001441
0.0001251
5.664e-05
8.541e-05
6.866e-05
5.218e-05
2.021e-05
1.45e-05
7.572e-06
6.623e-06
8.402e-06
1.193e-05
1.225e-05
1.099e-05
3.21e-05
0.0001376
0.0007091
0.00141
0.002149
0.005217
0.0269
0.3254
0.8477
0.9579
0.9878
0.998
0.9997
0.9999
1
1
1
1
1
1
1
1
1
1
1
1
1
1
1
1
1
1
1
1
1
1
1
1
1
1
1
1
1
1
1
1
1
1
1
1
1
1
1
1
1
1
1
1
1
1
1
1
1
1
1
1
1
1
1
1
1
1
1
1
1
1
1
1
1
1
1
1
1
1
1
1
1
1
1
1
1
1
1
1
1
1
1
1
1
1
1
1
1
1
1.147e-05
1.556e-05
4.165e-05
1.915e-05
1.555e-05
8.197e-06
1.23e-05
2.562e-05
6.268e-05
2.943e-05
4.519e-05
2.937e-05
3.863e-05
5.366e-05
4.693e-05
6.941e-06
1.324e-06
4.691e-08
3.611e-09
9.351e-10
5.593e-09
2.597e-07
1.627e-05
0.0001495
0.0006839
0.0006783
0.001442
0.002616
0.004601
0.004832
0.004353
0.003339
0.003588
0.003728
0.00283
0.002356
0.003031
0.003335
0.004369
0.006568
0.002955
0.001447
0.0008188
0.000867
0.0004219
0.0004367
0.000368
0.0003852
0.0003563
0.0003766
0.0002257
0.0001224
8.853e-05
5.576e-05
4.969e-05
6.081e-05
0.0001346
0.0004993
0.003224
0.009311
0.03918
0.3316
0.7994
0.9594
0.9925
0.9987
0.9998
1
1
1
1
1
1
1
1
1
1
1
1
1
1
1
1
1
1
1
1
1
1
1
1
1
1
1
1
1
1
1
1
1
1
1
1
1
1
1
1
1
1
1
1
1
1
1
1
1
1
1
1
1
1
1
1
1
1
1
1
1
1
1
1
1
1
1
1
1
1
1
1
1
1
1
1
1
1
1
1
1
1
1
1
1
1
1
1
1
1
1
1
1
2.503e-05
4.497e-05
0.0001506
8.774e-05
4.32e-05
2.247e-05
4.38e-05
6.912e-05
0.0001066
5.537e-05
5.339e-05
4.979e-05
6.671e-05
8.651e-05
1.795e-05
1.058e-06
9.678e-08
3.999e-09
5.874e-10
2.841e-10
4.095e-09
2.275e-07
1.303e-05
0.0001546
0.00099
0.0008614
0.001452
0.002544
0.0039
0.003609
0.003201
0.002295
0.003
0.003549
0.004354
0.004786
0.00707
0.006899
0.008221
0.01078
0.006011
0.004119
0.002933
0.002891
0.001214
0.0008287
0.0004168
0.0003814
0.0005794
0.001029
0.0008655
0.0004259
0.0002995
0.0001909
0.0003165
0.0005236
0.001582
0.005413
0.03957
0.2153
0.6877
0.9318
0.9917
0.9993
1
1
1
1
1
1
1
1
1
1
1
1
1
1
1
1
1
1
1
1
1
1
1
1
1
1
1
1
1
1
1
1
1
1
1
1
1
1
1
1
1
1
1
1
1
1
1
1
1
1
1
1
1
1
1
1
1
1
1
1
1
1
1
1
1
1
1
1
1
1
1
1
1
1
1
1
1
1
1
1
1
1
1
1
1
1
1
1
1
1
1
1
1
1
1
1
1.965e-05
5.203e-05
0.0002442
0.0001422
6.277e-05
5.579e-05
0.0001202
0.000393
0.0004114
0.0002139
0.0001127
8.455e-05
7.529e-05
8.926e-05
4.778e-06
2.149e-07
2.72e-08
3.53e-09
1.113e-09
1.121e-09
2.355e-08
1.096e-06
6.892e-05
0.0006373
0.002541
0.00144
0.001883
0.002399
0.003439
0.003482
0.003352
0.002715
0.004076
0.004937
0.004844
0.005153
0.006205
0.003922
0.002692
0.002839
0.002584
0.003581
0.00592
0.007762
0.003686
0.001546
0.0003661
0.0001967
0.0001747
0.0002788
0.0003211
0.0003019
0.0005423
0.001064
0.002818
0.008735
0.04415
0.181
0.7628
0.9438
0.9898
0.9987
0.9999
1
1
1
1
1
1
1
1
1
1
1
1
1
1
1
1
1
1
1
1
1
1
1
1
1
1
1
1
1
1
1
1
1
1
1
1
1
1
1
1
1
1
1
1
1
1
1
1
1
1
1
1
1
1
1
1
1
1
1
1
1
1
1
1
1
1
1
1
1
1
1
1
1
1
1
1
1
1
1
1
1
1
1
1
1
1
1
1
1
1
1
1
1
1
1
1
1
4.8e-05
0.0001217
0.0004182
0.0002608
6.929e-05
8.279e-05
0.0002722
0.001256
0.001214
0.0004864
0.0001874
0.0001079
4.575e-05
4.201e-05
2.271e-06
1.432e-07
5.775e-08
3.833e-08
2.785e-08
5.439e-08
8.657e-07
1.983e-05
0.0005426
0.003138
0.008486
0.00434
0.004648
0.00407
0.00407
0.003344
0.003091
0.003223
0.00574
0.00754
0.006334
0.005837
0.005591
0.00318
0.001811
0.001406
0.001066
0.001523
0.002564
0.003641
0.00239
0.001526
0.000489
0.0002097
0.0001106
0.0001277
0.0001731
0.0003304
0.001328
0.005866
0.02658
0.1614
0.7253
0.927
0.9908
0.9988
0.9999
1
1
1
1
1
1
1
1
1
1
1
1
1
1
1
1
1
1
1
1
1
1
1
1
1
1
1
1
1
1
1
1
1
1
1
1
1
1
1
1
1
1
1
1
1
1
1
1
1
1
1
1
1
1
1
1
1
1
1
1
1
1
1
1
1
1
1
1
1
1
1
1
1
1
1
1
1
1
1
1
1
1
1
1
1
1
1
1
1
1
1
1
1
1
1
1
1
1
1
0.0001136
0.0002558
0.000812
0.0005254
0.0001355
0.0001949
0.0004752
0.002022
0.0019
0.0006928
0.0001705
0.0001066
5.694e-05
4.228e-05
4.047e-06
6.554e-07
7.743e-07
1.798e-06
2.491e-06
5.264e-06
3.843e-05
0.0002703
0.001879
0.005348
0.009356
0.005469
0.006281
0.005239
0.004623
0.00318
0.003574
0.005294
0.01074
0.01581
0.01148
0.008152
0.004725
0.002332
0.001097
0.0007241
0.0004699
0.0006526
0.0009618
0.001339
0.00156
0.001641
0.0008778
0.0005228
0.0002877
0.0002214
0.0002354
0.001152
0.00981
0.0809
0.6338
0.9296
0.9917
0.999
0.9999
1
1
1
1
1
1
1
1
1
1
1
1
1
1
1
1
1
1
1
1
1
1
1
1
1
1
1
1
1
1
1
1
1
1
1
1
1
1
1
1
1
1
1
1
1
1
1
1
1
1
1
1
1
1
1
1
1
1
1
1
1
1
1
1
1
1
1
1
1
1
1
1
1
1
1
1
1
1
1
1
1
1
1
1
1
1
1
1
1
1
1
1
1
1
1
1
1
1
1
1
1
0.000381
0.0007941
0.001909
0.0008461
0.0002349
0.0002876
0.0003926
0.001824
0.002698
0.001319
0.0004248
0.000418
0.0002548
0.0001761
3.003e-05
7.416e-06
9.414e-06
2.998e-05
6e-05
0.0002086
0.0007069
0.001203
0.001759
0.001795
0.001702
0.001882
0.004687
0.004033
0.003586
0.002174
0.001944
0.002377
0.005386
0.009964
0.009468
0.007597
0.004607
0.002623
0.001682
0.001209
0.0006855
0.0005845
0.0005278
0.0005277
0.000804
0.001396
0.001598
0.001729
0.001505
0.001279
0.002954
0.01992
0.4149
0.8898
0.9849
0.9981
0.9999
1
1
1
1
1
1
1
1
1
1
1
1
1
1
1
1
1
1
1
1
1
1
1
1
1
1
1
1
1
1
1
0.9999
0.9999
1
1
0.9999
0.9999
0.9999
1
1
1
1
1
1
1
1
1
1
1
1
1
1
1
1
1
1
1
1
1
1
1
1
1
1
1
1
1
1
1
1
1
1
1
1
1
1
1
1
1
1
1
1
1
1
1
1
1
1
1
1
1
1
1
1
1
1
1
1
1
1
1
1
1
0.0006611
0.001293
0.002798
0.001111
0.0003305
0.0001856
0.0001362
0.0006939
0.002
0.002174
0.00104
0.001685
0.0011
0.0007476
0.0002367
9.477e-05
0.0001204
0.0003799
0.0005782
0.001495
0.002721
0.002091
0.001314
0.0008129
0.0007271
0.001129
0.004945
0.004275
0.003914
0.002498
0.001941
0.001623
0.002889
0.005765
0.008088
0.009425
0.007659
0.005464
0.004364
0.002926
0.001158
0.0006248
0.0003874
0.0003067
0.0004898
0.00138
0.002652
0.005431
0.01261
0.02651
0.132
0.7862
0.9769
0.9976
0.9998
1
1
1
1
1
1
1
1
1
1
1
1
1
1
1
1
1
1
1
1
1
1
1
1
1
1
1
0.9999
0.9996
0.9989
0.9979
0.995
0.9921
0.9879
0.9842
0.9863
0.9872
0.9849
0.9887
0.9927
0.9947
0.9982
0.9993
0.9997
0.9998
0.9999
1
1
1
1
1
1
1
1
1
1
1
1
1
1
1
1
1
1
1
1
1
1
1
1
1
1
1
1
1
1
1
1
1
1
1
1
1
1
1
1
1
1
1
1
1
1
1
1
1
1
1
1
1
1
1
1
1
1
1
0.001016
0.001817
0.003939
0.001053
0.0003132
7.259e-05
3.9e-05
0.0002386
0.001989
0.005175
0.004878
0.008015
0.004867
0.003211
0.001438
0.0009216
0.0006695
0.001464
0.001514
0.003034
0.003915
0.002217
0.00123
0.0006511
0.001004
0.002118
0.009417
0.008202
0.006424
0.003743
0.002566
0.001409
0.001652
0.002989
0.005766
0.0106
0.01425
0.01071
0.009417
0.006269
0.002466
0.001184
0.0005792
0.0004172
0.000752
0.002322
0.00615
0.01959
0.09761
0.524
0.9119
0.9927
0.9995
0.9999
1
1
1
1
1
1
1
1
1
1
1
1
1
1
1
1
1
1
1
1
1
1
1
0.9999
0.9997
0.9989
0.9973
0.9922
0.9865
0.9717
0.9509
0.8847
0.7273
0.5332
0.3021
0.1545
0.1181
0.102
0.133
0.2181
0.3685
0.4164
0.7506
0.9105
0.9717
0.9886
0.9961
0.9982
0.9995
0.9999
1
1
1
1
1
1
1
1
1
1
1
1
1
1
1
1
1
1
1
1
1
1
1
1
1
1
1
1
1
1
1
1
1
1
1
1
1
1
1
1
1
1
1
1
1
1
1
1
1
1
1
1
1
1
1
1
0.000845
0.001286
0.003167
0.001177
0.0007697
0.0001296
6.051e-05
0.0001566
0.001285
0.00254
0.003948
0.006782
0.00641
0.004503
0.002358
0.002125
0.001534
0.002533
0.003515
0.004692
0.004357
0.002592
0.001712
0.001081
0.001177
0.001823
0.006254
0.006671
0.007524
0.006085
0.004312
0.001751
0.001431
0.001756
0.003812
0.008704
0.01431
0.009733
0.00842
0.00611
0.002957
0.001633
0.00102
0.001232
0.00284
0.01105
0.03992
0.2251
0.8045
0.9702
0.9976
0.9999
1
1
1
1
1
1
1
1
1
1
1
1
1
1
1
1
1
1
1
1
1
1
0.9999
0.9997
0.9985
0.9924
0.9702
0.915
0.776
0.4137
0.1881
0.08925
0.03686
0.01515
0.006919
0.005314
0.005509
0.005614
0.004194
0.00334
0.005575
0.008711
0.01045
0.01165
0.01777
0.02923
0.08183
0.2199
0.4992
0.7787
0.9329
0.9856
0.9965
0.9986
0.9997
0.9999
1
1
1
1
1
1
1
1
1
1
1
1
1
1
1
1
1
1
1
1
1
1
1
1
1
1
1
1
1
1
1
1
1
1
1
1
1
1
1
1
1
1
1
1
1
1
1
1
1
0.9999
0.9996
0.9987
0.0007517
0.0008373
0.002227
0.0013
0.001563
0.0002264
0.0001302
0.0001402
0.0006443
0.00124
0.002597
0.004108
0.005811
0.005253
0.002304
0.001892
0.001618
0.002958
0.006578
0.008127
0.006352
0.004178
0.003607
0.002916
0.002786
0.00269
0.005171
0.005569
0.007165
0.007558
0.005717
0.002014
0.00165
0.001623
0.003262
0.007045
0.01217
0.008314
0.007402
0.005355
0.003137
0.00249
0.002462
0.003919
0.01334
0.06949
0.5227
0.9145
0.9923
0.9993
0.9999
1
1
1
1
1
1
1
1
1
1
1
1
1
1
1
1
1
1
1
1
1
0.9999
0.9988
0.9907
0.9656
0.8755
0.6131
0.1923
0.06625
0.01585
0.007631
0.005196
0.002801
0.001068
0.0005432
0.0002202
0.0002111
0.0003811
0.0005271
0.0004472
0.0004087
0.0007497
0.001156
0.001149
0.001256
0.001146
0.001205
0.002556
0.005533
0.007935
0.01817
0.05788
0.2289
0.6462
0.8632
0.9705
0.9924
0.9974
0.9987
0.9997
0.9999
1
1
1
1
1
1
1
1
1
1
1
1
1
1
1
1
1
1
1
1
1
1
1
1
1
1
1
1
1
1
1
1
1
1
1
1
1
1
1
1
1
1
0.9998
0.9988
0.9946
0.9807
0.9506
0.9031
0.0008958
0.0006177
0.00178
0.001068
0.00171
0.0002907
0.0001974
0.0001089
0.0002688
0.0005587
0.00139
0.002724
0.005994
0.006875
0.002343
0.0016
0.001838
0.004397
0.005304
0.00355
0.001721
0.001592
0.003407
0.007414
0.007098
0.003841
0.003549
0.004098
0.006058
0.007171
0.00655
0.003384
0.003082
0.002215
0.002554
0.002874
0.003383
0.002499
0.003498
0.003731
0.003353
0.0041
0.00694
0.01914
0.1378
0.7222
0.9641
0.9974
0.9999
1
1
1
1
1
1
1
1
1
1
1
1
1
1
1
1
1
1
1
1
1
0.9996
0.998
0.9838
0.9003
0.6499
0.224
0.05514
0.01264
0.003648
0.001797
0.0006323
0.0004546
0.0003778
0.0002741
0.0001083
8.867e-05
5.011e-05
5.806e-05
9.906e-05
0.0001581
0.0001524
0.0001457
0.0002387
0.0003472
0.0002521
0.0002006
0.0001375
0.0001295
0.000223
0.0003395
0.0003563
0.0006497
0.001734
0.006077
0.02064
0.07494
0.2522
0.5875
0.8696
0.9727
0.9984
0.9998
1
1
1
1
1
1
1
1
1
1
1
1
1
1
1
1
1
1
1
1
1
1
1
1
1
1
1
1
1
1
1
1
1
1
1
1
1
0.9999
0.9996
0.9984
0.9952
0.9831
0.9388
0.7972
0.6095
0.4436
0.3393
0.08578
0.0009702
0.0005323
0.001909
0.001081
0.001506
0.0003075
0.0001958
0.000114
0.0003151
0.0005724
0.0008351
0.001444
0.004117
0.006337
0.001917
0.001226
0.001163
0.002639
0.00272
0.002259
0.0007755
0.0007595
0.001757
0.00756
0.008786
0.00502
0.004017
0.004215
0.006268
0.007101
0.00725
0.005782
0.00638
0.004722
0.003564
0.002054
0.001407
0.00107
0.002092
0.003811
0.007022
0.01374
0.05207
0.2924
0.8697
0.984
0.999
0.9999
1
1
1
1
1
1
1
1
1
1
1
1
1
1
1
1
1
1
1
0.9999
0.9992
0.9951
0.9611
0.8498
0.3233
0.05617
0.01696
0.007791
0.002786
0.0009391
0.000364
0.0002025
0.0001188
0.0001358
0.0001386
0.0001707
0.0001114
0.000142
9.726e-05
0.000131
0.0002046
0.0003439
0.0003016
0.0002812
0.0004419
0.0003954
0.0002394
0.0002264
0.0001394
9.574e-05
0.0001026
9.77e-05
6.556e-05
8.516e-05
0.0002006
0.0007343
0.002434
0.00509
0.01078
0.0288
0.2416