/*--------------------------------*- C++ -*----------------------------------*\
| =========                 |                                                 |
| \\      /  F ield         | OpenFOAM: The Open Source CFD Toolbox           |
|  \\    /   O peration     | Version:  5.x                                   |
|   \\  /    A nd           | Web:      www.OpenFOAM.org                      |
|    \\/     M anipulation  |                                                 |
\*---------------------------------------------------------------------------*/
FoamFile
{
    version     2.0;
    format      ascii;
    class       volScalarField;
    location    "175";
    object      gamma;
}
// * * * * * * * * * * * * * * * * * * * * * * * * * * * * * * * * * * * * * //

dimensions      [0 0 0 0 0 0 0];

internalField   nonuniform List<scalar> 
86400
(
1.212e-07
1.572e-07
2.693e-07
5.806e-07
1.492e-06
2.625e-06
3.196e-06
3.631e-06
4.203e-06
3.835e-06
5.453e-06
6.145e-06
6.209e-06
3.971e-06
2.764e-06
2.773e-06
7.193e-06
2.139e-05
4.305e-05
5.671e-05
6.425e-05
9.238e-05
0.0002235
0.0003586
0.0004559
0.0007536
0.0007632
0.0008464
0.0008688
0.0007685
0.0006243
0.0005381
0.0005349
0.0006044
0.00086
0.001493
0.002237
0.002855
0.002477
0.00243
0.002029
0.001955
0.001641
0.001123
0.001019
0.001337
0.002259
0.003378
0.004735
0.0042
0.004089
0.004291
0.00469
0.005452
0.006269
0.008067
0.01048
0.01131
0.01045
0.009155
0.007051
0.006922
0.006829
0.007586
0.0101
0.01426
0.01526
0.01503
0.01093
0.009454
0.0115
0.01743
0.02051
0.01814
0.0158
0.01416
0.01236
0.01429
0.01764
0.017
0.01676
0.01498
0.01443
0.01713
0.02465
0.02853
0.03084
0.0281
0.02842
0.02747
0.02106
0.01999
0.02006
0.0254
0.0277
0.02885
0.02271
0.0207
0.01984
0.01842
0.01632
0.01156
0.008005
0.004867
0.003096
0.003219
0.005064
0.007995
0.006306
0.00353
0.00159
0.001034
0.001103
0.001401
0.001427
0.001293
0.00116
0.001058
0.001035
0.001034
0.001021
0.0009838
0.0008572
0.0006983
0.0005929
0.0005491
0.0005024
0.0004864
0.0004507
0.0003905
0.0003101
0.0003186
0.0002526
0.0001539
9.942e-05
7.311e-05
8.267e-05
0.0001387
9.457e-05
3.103e-05
1.082e-05
5.271e-06
5.016e-06
3.472e-06
8.021e-07
1.105e-07
1.761e-08
2.14e-09
7.043e-10
8.339e-10
1.434e-09
9.068e-09
1.494e-07
1.379e-06
1.173e-05
5.73e-05
0.0001244
0.0002842
0.07116
0.9989
1.63e-07
1.757e-07
2.675e-07
4.984e-07
1.327e-06
2.356e-06
2.748e-06
2.621e-06
2.062e-06
1.532e-06
2.16e-06
3.068e-06
4.943e-06
6.041e-06
4.912e-06
3.509e-06
7.402e-06
2.123e-05
5.297e-05
0.0001321
0.0001805
0.0002281
0.0003665
0.0005473
0.00071
0.0009711
0.0011
0.001299
0.001559
0.001247
0.001032
0.0009155
0.0009795
0.001184
0.001811
0.00317
0.005253
0.007559
0.007636
0.007495
0.005726
0.004671
0.003877
0.002748
0.002056
0.002342
0.003184
0.004503
0.006852
0.007606
0.008202
0.009559
0.01171
0.01387
0.01156
0.009064
0.007168
0.005499
0.004339
0.004332
0.003764
0.003641
0.003314
0.003255
0.00371
0.006
0.007438
0.008832
0.007801
0.008292
0.01115
0.01599
0.01293
0.008825
0.005655
0.005668
0.008133
0.01446
0.02064
0.02054
0.01851
0.01618
0.01813
0.02286
0.03562
0.04425
0.05218
0.05005
0.05533
0.06132
0.05741
0.05801
0.05465
0.048
0.0393
0.03113
0.02169
0.01787
0.01611
0.01413
0.01389
0.01408
0.01557
0.01398
0.009247
0.007346
0.008531
0.0108
0.009685
0.006301
0.002678
0.001555
0.001127
0.0009829
0.0008297
0.0008439
0.001161
0.001984
0.003128
0.003613
0.003706
0.003591
0.003133
0.002562
0.002226
0.00213
0.00195
0.001869
0.001655
0.001377
0.001086
0.0008582
0.0005206
0.000318
0.0002339
0.0001712
0.0001751
0.000201
0.0001212
3.559e-05
1.521e-05
5.818e-06
3.112e-06
1.66e-06
4.238e-07
1.061e-07
3.363e-08
1.319e-08
1.865e-08
4.158e-08
1.158e-07
5.547e-07
4.25e-06
2.67e-05
0.0002805
0.003139
0.03127
0.589
0.9607
0.9997
2.716e-07
2.626e-07
3.552e-07
5.467e-07
1.317e-06
2.121e-06
2.213e-06
1.84e-06
1.141e-06
9.763e-07
1.488e-06
3.213e-06
6.043e-06
1.05e-05
8.382e-06
7.318e-06
1.8e-05
5.643e-05
0.0001052
0.0002409
0.0002316
0.000257
0.0004109
0.000677
0.0007555
0.001183
0.00162
0.002359
0.003468
0.003106
0.002447
0.002572
0.002664
0.002642
0.002818
0.003368
0.004479
0.005934
0.004789
0.004175
0.002932
0.002608
0.002266
0.002096
0.001783
0.002363
0.004012
0.006439
0.01039
0.01299
0.01097
0.008378
0.006651
0.005718
0.004037
0.003724
0.003105
0.0023
0.001733
0.001782
0.00179
0.001976
0.002165
0.00273
0.002801
0.003523
0.00413
0.005034
0.004757
0.005948
0.007659
0.008036
0.005022
0.003872
0.003476
0.005896
0.01302
0.02635
0.03609
0.03878
0.0345
0.02774
0.03034
0.03747
0.06262
0.07708
0.0926
0.09472
0.08755
0.07303
0.05151
0.03578
0.0231
0.02068
0.01856
0.01712
0.01558
0.01541
0.01342
0.01208
0.01334
0.01677
0.02324
0.02446
0.01952
0.01621
0.01436
0.01608
0.01455
0.009914
0.005589
0.004261
0.002658
0.001999
0.001628
0.001817
0.002335
0.00339
0.004109
0.003473
0.003021
0.003114
0.002817
0.002378
0.002056
0.001887
0.001628
0.001465
0.001213
0.001068
0.000954
0.0007298
0.0003857
0.0001781
0.0001139
8.884e-05
0.0001246
0.0001794
0.0001439
5.641e-05
2.06e-05
7.593e-06
5.104e-06
3.38e-06
1.434e-06
5.19e-07
2.216e-07
1.504e-07
3.958e-07
1.368e-06
4.51e-06
1.584e-05
0.0001036
0.0007546
0.00924
0.1862
0.87
0.9926
0.9997
1
4.767e-07
4.47e-07
4.855e-07
5.802e-07
1.125e-06
1.496e-06
1.254e-06
8.969e-07
5.829e-07
7.104e-07
1.006e-06
1.251e-06
1.335e-06
3.535e-06
4.427e-06
7.357e-06
1.929e-05
3.181e-05
2.801e-05
3.338e-05
2.552e-05
1.943e-05
4.393e-05
9.364e-05
0.0001079
0.0002113
0.0004268
0.0007937
0.001603
0.002027
0.00165
0.002281
0.002922
0.003304
0.003387
0.003551
0.00392
0.005013
0.003454
0.002991
0.002437
0.002525
0.003149
0.003858
0.002547
0.002321
0.00216
0.00244
0.003322
0.004719
0.003522
0.002341
0.002001
0.001865
0.001358
0.001302
0.0009904
0.0007303
0.000659
0.0008873
0.001086
0.001484
0.001929
0.002222
0.002088
0.002509
0.002646
0.002971
0.002974
0.004745
0.007751
0.008004
0.00565
0.005053
0.003913
0.007306
0.01603
0.02704
0.02752
0.03036
0.02613
0.02244
0.02384
0.02598
0.03236
0.03653
0.04366
0.04776
0.05252
0.05964
0.06314
0.05707
0.0374
0.03141
0.0249
0.02134
0.02032
0.02158
0.01875
0.01872
0.01885
0.0196
0.02909
0.03191
0.02325
0.01781
0.0115
0.01099
0.01036
0.009362
0.005404
0.004722
0.002683
0.001823
0.001399
0.001899
0.00322
0.005661
0.007087
0.005729
0.004549
0.00483
0.004539
0.003991
0.003534
0.003213
0.002724
0.002411
0.002093
0.00196
0.001909
0.0015
0.0007744
0.0003567
0.0002057
9.989e-05
7.925e-05
5.663e-05
3.421e-05
1.95e-05
8.656e-06
3.589e-06
3.138e-06
3.257e-06
2.669e-06
2.048e-06
1.99e-06
2.834e-06
1.618e-05
9.084e-05
0.0004996
0.002062
0.01132
0.08582
0.7095
0.971
0.9988
1
1
1
1.038e-06
1.129e-06
1.088e-06
1.142e-06
1.47e-06
1.276e-06
6.51e-07
5.042e-07
4.341e-07
7.14e-07
8.276e-07
5.075e-07
2.463e-07
6.978e-07
1.295e-06
6.128e-06
3.345e-05
2.342e-05
5.663e-06
3.844e-06
3.368e-06
2.87e-06
1.153e-05
2.555e-05
3.321e-05
9.939e-05
0.0003676
0.001371
0.003619
0.003867
0.001568
0.001281
0.00112
0.001132
0.001201
0.001176
0.0009784
0.00144
0.001506
0.002178
0.001853
0.001495
0.0007416
0.0004528
0.0001976
0.0001662
0.0001337
0.0001743
0.0003506
0.000933
0.001145
0.001188
0.001042
0.001118
0.0009538
0.001025
0.0008813
0.0007076
0.0008947
0.001604
0.002591
0.00413
0.006329
0.007314
0.004984
0.003442
0.002728
0.002338
0.002059
0.003037
0.004966
0.004469
0.004369
0.005411
0.006071
0.009259
0.01678
0.01747
0.01431
0.01738
0.01576
0.01372
0.0153
0.01888
0.02658
0.03699
0.04824
0.05047
0.05387
0.05952
0.05732
0.06034
0.04214
0.03328
0.02323
0.02098
0.01418
0.01396
0.01343
0.01186
0.007809
0.004151
0.003456
0.003926
0.004642
0.008345
0.009465
0.008214
0.007281
0.01036
0.007478
0.007833
0.005074
0.003787
0.002702
0.002599
0.002446
0.002607
0.002063
0.001738
0.001373
0.001487
0.001433
0.001346
0.001263
0.00119
0.001037
0.0009537
0.0008955
0.0009296
0.0009761
0.0006952
0.000295
0.0001065
2.808e-05
9.144e-06
6.394e-06
7.486e-06
5.879e-06
5.18e-06
3.195e-06
2.396e-06
3.545e-06
7.391e-06
1.478e-05
2.648e-05
5.156e-05
0.0001236
0.0008532
0.004392
0.02381
0.1135
0.5771
0.9287
0.9941
0.9998
1
1
1
1
1.587e-06
2.288e-06
2.185e-06
2.289e-06
1.627e-06
9.547e-07
3.821e-07
3.479e-07
4.816e-07
1.282e-06
1.566e-06
4.723e-07
1.159e-07
2.171e-07
1.133e-06
7.933e-06
3.567e-05
1.499e-05
2.963e-06
2.411e-06
4.232e-06
5.458e-06
2.799e-05
1.787e-05
9.228e-06
1.203e-05
3.658e-05
0.0001611
0.0008985
0.0009293
0.000303
0.0001966
0.0001677
0.0001896
0.0003517
0.0004325
0.0002636
0.0002909
0.0003216
0.0003055
0.0001465
7.454e-05
1.818e-05
6.553e-06
2.627e-06
1.006e-06
2.035e-07
1.959e-07
4.464e-07
2.072e-06
4.985e-06
1.374e-05
3.085e-05
5.746e-05
7.612e-05
7.293e-05
5.316e-05
6.253e-05
0.0002359
0.001007
0.003082
0.004736
0.003982
0.003229
0.001941
0.001309
0.002125
0.003036
0.003128
0.004917
0.008457
0.006588
0.006039
0.006178
0.004642
0.004231
0.003204
0.002543
0.002378
0.00436
0.007553
0.0162
0.02598
0.03765
0.05143
0.06549
0.07496
0.07862
0.09918
0.1357
0.1248
0.05749
0.0138
0.00335
0.0008577
0.0004538
0.0002174
0.000227
0.0002459
0.0004171
0.00054
0.0005302
0.0004488
0.0004415
0.0004575
0.0009638
0.001269
0.002017
0.002876
0.002993
0.001799
0.001812
0.00146
0.001445
0.001191
0.001085
0.0009319
0.0009065
0.0007732
0.00071
0.0005565
0.0005531
0.0005173
0.0005012
0.0004793
0.0004234
0.000347
0.0002708
0.0001983
0.0001359
0.0001212
0.0001038
7.576e-05
5.255e-05
2.138e-05
7.215e-06
3.734e-06
3.618e-06
3.533e-06
5.058e-06
4.725e-06
6.257e-06
1.38e-05
4.99e-05
0.0001879
0.0006405
0.002065
0.007092
0.03598
0.1829
0.7384
0.9438
0.992
0.9995
1
1
1
1
1
1
1.831e-06
3.486e-06
2.992e-06
2.606e-06
1.441e-06
7.804e-07
3.095e-07
4.975e-07
1.612e-06
5.915e-06
6.104e-06
1.318e-06
1.227e-07
1.339e-07
3.626e-07
4.04e-06
3.272e-05
3.653e-05
1.294e-05
1.487e-05
3.667e-05
4.579e-05
0.0001519
3.44e-05
1.014e-05
6.697e-06
1.445e-05
4.836e-05
0.0003715
0.0004127
0.0001383
5.829e-05
5.514e-05
8.669e-05
0.0001904
0.0002083
8.028e-05
6.28e-05
0.0001004
0.0001027
3.195e-05
7.353e-06
6.327e-07
1.021e-07
3.537e-08
5.18e-09
4.728e-10
3.282e-10
7.667e-10
6.141e-09
2.668e-08
1.085e-07
3.698e-07
1.101e-06
2.031e-06
2.221e-06
2.134e-06
4.428e-06
4.555e-05
0.0003478
0.002022
0.004269
0.003692
0.003848
0.003932
0.002855
0.005788
0.009012
0.008583
0.008128
0.01209
0.005009
0.002487
0.001778
0.001453
0.001781
0.001263
0.000827
0.0004323
0.0005209
0.001102
0.005339
0.01418
0.01751
0.02103
0.02322
0.03086
0.05451
0.1753
0.3991
0.2895
0.1004
0.01782
0.002947
0.0005014
0.0002146
6.242e-05
4.707e-05
3.282e-05
8.02e-05
0.0001548
0.000191
0.0001908
0.000101
4.719e-05
4.155e-05
4.267e-05
5.312e-05
0.0001765
0.0003035
0.000433
0.0007304
0.0008418
0.001093
0.001139
0.001044
0.0006932
0.0005452
0.0004047
0.0004374
0.0004149
0.0003742
0.0002734
0.0001643
0.000113
8.878e-05
8.233e-05
7.579e-05
6.235e-05
3.492e-05
2.947e-05
3.258e-05
3.862e-05
4.245e-05
2.736e-05
1.372e-05
1.301e-05
2.517e-05
4.416e-05
0.0001202
0.0002321
0.0004794
0.001337
0.005295
0.01828
0.06355
0.2324
0.6582
0.9078
0.9808
0.9976
0.9998
1
1
1
1
1
1
1
1
3.035e-06
5.484e-06
3.466e-06
2.604e-06
1.571e-06
9.522e-07
5.779e-07
1.912e-06
5.746e-06
1.049e-05
1.042e-05
1.825e-06
1.575e-07
1.374e-07
3.073e-07
2.539e-06
2.337e-05
6.931e-05
0.0001081
0.0003991
0.0008571
0.0008509
0.001473
0.0003322
6.639e-05
1.319e-05
1.795e-05
3.494e-05
0.0002035
0.0002928
0.0001501
0.0001257
0.0001252
0.0002001
0.000339
0.0003068
0.0001103
0.0001072
0.0002642
0.0001308
2.243e-05
1.974e-06
1.476e-07
1.464e-08
6.05e-09
4.547e-10
2.646e-11
1.491e-11
4e-11
3.78e-10
2.384e-09
1.722e-08
1.287e-07
7.163e-07
1.358e-06
5.692e-07
2.332e-07
2.958e-07
2.908e-06
3.407e-05
0.0004714
0.002103
0.002761
0.00384
0.005063
0.004306
0.007931
0.008401
0.004366
0.001396
0.0009785
0.0003912
0.000176
0.0001351
0.0002018
0.0003107
0.0003104
0.0006542
0.0006186
0.001414
0.004333
0.03587
0.1313
0.2268
0.2378
0.4204
0.7903
0.942
0.9899
0.9961
0.9934
0.9772
0.897
0.5229
0.09109
0.02276
0.002958
0.001047
0.0003415
0.0002923
0.0002442
0.000423
0.0001583
2.099e-05
2.964e-06
1.491e-06
3.142e-06
7.466e-06
3.077e-05
2.483e-05
2.914e-05
3.927e-05
6.432e-05
0.0001155
0.0001283
0.000117
0.000125
0.0001294
0.0001289
0.0002247
0.0003521
0.0004545
0.0003937
0.0002145
0.0001254
9.492e-05
9.958e-05
0.0001023
9.413e-05
4.919e-05
4.121e-05
4.977e-05
0.000115
0.0002315
0.0003312
0.0002786
0.0003075
0.0005194
0.001216
0.004531
0.01432
0.04504
0.1432
0.4603
0.7941
0.9481
0.988
0.9979
0.9997
1
1
1
1
1
1
1
1
1
1
1
4.85e-06
6.303e-06
3.165e-06
2.131e-06
1.361e-06
1.112e-06
1.559e-06
4.534e-06
7.71e-06
9.045e-06
4.934e-06
1.21e-06
3.422e-07
3.747e-07
8.869e-07
4.013e-06
1.289e-05
4.305e-05
0.0001102
0.000187
0.0004398
0.0008663
0.002836
0.002032
0.0007768
0.0002166
9.751e-05
0.0001188
0.0003223
0.0005098
0.0003736
0.0005477
0.0004734
0.0006162
0.000507
0.0002406
5.341e-05
7.854e-05
0.0001857
4.088e-05
4.522e-06
3.069e-07
3.298e-08
5.334e-09
5.296e-09
8.449e-10
1.279e-10
8.544e-11
2.097e-10
4.451e-10
1.409e-09
5.66e-09
3.018e-08
1.476e-07
3.214e-07
1.643e-07
5.558e-08
5.508e-08
3.406e-07
5.041e-06
0.0001519
0.001478
0.004186
0.006839
0.006205
0.002353
0.001684
0.0009915
0.0003683
9.734e-05
7.18e-05
4.351e-05
3.038e-05
3.672e-05
0.000211
0.001481
0.005491
0.03555
0.09769
0.3464
0.7711
0.9496
0.9851
0.993
0.9955
0.9983
0.9997
0.9999
1
1
0.9999
0.9996
0.9984
0.9948
0.9924
0.9859
0.9482
0.7807
0.2038
0.04592
0.01896
0.01588
0.003364
0.0002189
2.664e-05
4.299e-06
3.273e-06
3.925e-06
7.432e-06
1.905e-06
1.308e-06
8.004e-07
9.949e-07
2.373e-06
8.817e-06
3.367e-05
7.756e-05
7.591e-05
5.634e-05
5.477e-05
7.844e-05
0.0001465
0.0001772
0.0001164
7.207e-05
5.216e-05
6.976e-05
9.896e-05
0.0001303
0.0001044
0.0001344
0.0002548
0.0007175
0.002152
0.005993
0.01173
0.02652
0.07605
0.2716
0.7001
0.8971
0.9683
0.9893
0.9963
0.9992
0.9999
1
1
1
1
1
1
1
1
1
1
1
1
1
1
3.86e-06
3.857e-06
2.259e-06
1.703e-06
1.574e-06
2.112e-06
2.781e-06
4.532e-06
4.742e-06
4.05e-06
1.528e-06
7.183e-07
5.943e-07
1.004e-06
3.287e-06
8.45e-06
2.984e-05
3.859e-05
5.727e-05
3.511e-05
6.126e-05
0.0001852
0.00107
0.002915
0.002674
0.0009351
0.0002314
0.0002401
0.0002911
0.0006592
0.00111
0.002801
0.002642
0.002774
0.0008063
0.000244
9.147e-05
0.0001602
0.0001477
1.337e-05
1.003e-06
6.358e-08
1.399e-08
7.502e-09
1.097e-08
3.267e-09
1.847e-09
2.198e-09
2.273e-09
1.438e-09
1.331e-09
1.735e-09
1.063e-08
8.965e-08
2.627e-07
2.038e-07
1.105e-07
9.219e-08
3.131e-07
4.3e-06
9.315e-05
0.001178
0.002737
0.003029
0.001436
0.0003179
0.0001037
7.272e-05
5.22e-05
3.07e-05
5.637e-05
9.753e-05
0.000341
0.001659
0.01491
0.09873
0.4787
0.8426
0.9577
0.9897
0.9984
0.9997
0.9999
1
1
1
1
1
1
1
1
1
1
1
1
1
0.9999
0.9996
0.9976
0.9881
0.9599
0.9125
0.7041
0.07561
0.00432
0.000565
0.0001673
8.725e-05
5.338e-05
3.772e-06
4.636e-07
8.254e-08
4.843e-08
4.144e-08
2.713e-07
2.885e-06
1.285e-05
2.459e-05
2.9e-05
2.235e-05
4.094e-05
0.0001702
0.0003427
0.0004369
0.0005349
0.000636
0.001236
0.002716
0.005579
0.006812
0.01097
0.02172
0.05653
0.222
0.6634
0.8684
0.9539
0.9834
0.9941
0.9986
0.9997
0.9999
1
1
1
1
1
1
1
1
1
1
1
1
1
1
1
1
1
1
3.251e-06
2.54e-06
1.974e-06
2.418e-06
3.769e-06
2.76e-06
1.275e-06
8.794e-07
5.596e-07
5.428e-07
4.726e-07
4.775e-07
1.264e-06
4.963e-06
1.204e-05
3.168e-05
5.764e-05
2.712e-05
2.213e-05
7.39e-06
1.186e-05
2.693e-05
0.000299
0.002022
0.004491
0.002893
0.001969
0.001438
0.0008651
0.001317
0.001448
0.001914
0.001158
0.0008329
0.0002579
9.02e-05
6.612e-05
0.0002277
0.0001383
1.475e-05
6.902e-07
6.112e-08
8.573e-09
4.418e-09
3.871e-09
4.726e-09
2.951e-08
1.055e-07
1.135e-07
2.187e-08
2.626e-09
9.063e-10
5.64e-09
1.209e-07
1.131e-06
3.766e-06
3.793e-06
2.381e-06
4.103e-06
3.649e-05
0.0002705
0.001005
0.001056
0.0006054
0.0001767
5.462e-05
2.794e-05
5.014e-05
0.0001254
0.0002791
0.001012
0.008479
0.05588
0.4623
0.8979
0.9796
0.9964
0.9992
0.9999
1
1
1
1
1
1
1
1
1
1
1
1
1
1
1
1
1
1
1
1
1
0.9999
0.9996
0.9988
0.9945
0.9756
0.8677
0.3629
0.04404
0.007592
0.0004911
3.445e-05
2.362e-06
6.025e-07
3.311e-07
2.176e-06
2.303e-05
9.109e-05
0.000141
0.0001777
0.0001159
0.0002111
0.001034
0.003103
0.006549
0.01243
0.01731
0.02669
0.06081
0.221
0.6475
0.8978
0.9671
0.988
0.9957
0.9988
0.9997
0.9999
1
1
1
1
1
1
1
1
1
1
1
1
1
1
1
1
1
1
1
1
1
1
1
2.94e-06
2.23e-06
2.224e-06
3.56e-06
6.216e-06
4.381e-06
1.007e-06
3.871e-07
1.4e-07
2.797e-07
3.863e-07
1.833e-06
8.033e-06
1.869e-05
4.174e-05
0.0001232
0.0001155
6.794e-05
3.768e-05
1.056e-05
1.615e-05
4.679e-05
0.0004462
0.002033
0.00468
0.003961
0.005073
0.003879
0.003129
0.003252
0.003057
0.002298
0.0009648
0.0003753
0.0002096
0.0001108
0.0001302
0.0005283
0.0001631
1.33e-05
4.908e-07
2.357e-08
2.067e-09
1.175e-09
6.001e-10
1.746e-09
2.264e-08
2.859e-07
3.382e-07
5.72e-08
3.207e-09
1.121e-09
1.012e-08
4.51e-07
8.5e-06
3.319e-05
4.728e-05
4.242e-05
4.694e-05
0.0001207
0.0001236
9.691e-05
5.297e-05
3.646e-05
2.002e-05
3.671e-05
0.0001112
0.0008172
0.007401
0.04995
0.347
0.8653
0.9757
0.9958
0.9994
0.9999
1
1
1
1
1
1
1
1
1
1
1
1
1
1
1
1
1
1
1
1
1
1
1
1
1
1
1
1
0.9999
0.9996
0.9981
0.9942
0.9758
0.8775
0.3961
0.03186
0.008453
0.004601
0.009992
0.02897
0.03554
0.02821
0.02658
0.01641
0.01973
0.04849
0.1283
0.5448
0.8615
0.9578
0.9857
0.9931
0.9971
0.9989
0.9998
0.9999
1
1
1
1
1
1
1
1
1
1
1
1
1
1
1
1
1
1
1
1
1
1
1
1
1
1
1
1
1.359e-06
1.285e-06
1.479e-06
2.323e-06
5.749e-06
4.997e-06
1.001e-06
3.596e-07
2.977e-07
6.8e-07
1.892e-06
1.344e-05
3.086e-05
6.321e-05
0.0001027
0.0001551
0.000137
0.0001066
5.675e-05
2.051e-05
2.92e-05
7.831e-05
0.0004397
0.001215
0.003013
0.003446
0.007958
0.007888
0.008978
0.007245
0.007582
0.004395
0.002223
0.001156
0.0006144
0.0003677
0.0004664
0.001291
0.0002443
2.57e-05
1.3e-06
6.867e-08
3.381e-09
2.205e-09
9.805e-10
4.521e-09
1.046e-07
2.556e-06
2.424e-06
5.097e-07
1.526e-08
3.258e-09
1.574e-08
6.12e-07
8.259e-06
3.947e-05
7.442e-05
8.019e-05
8.643e-05
0.0001023
5.124e-05
2.571e-05
1.227e-05
2.312e-05
8.094e-05
0.0007368
0.009775
0.2108
0.8129
0.9628
0.9924
0.9989
0.9998
1
1
1
1
1
1
1
1
1
1
1
1
1
1
1
1
1
1
1
1
1
1
1
1
1
1
1
1
1
1
1
1
1
1
1
0.9999
0.9997
0.9989
0.9977
0.9965
0.9945
0.995
0.9958
0.9936
0.9926
0.9933
0.9922
0.9935
0.9953
0.9969
0.9988
0.9997
0.9999
1
1
1
1
1
1
1
1
1
1
1
1
1
1
1
1
1
1
1
1
1
1
1
1
1
1
1
1
1
1
1
1
1
1
1.563e-06
1.355e-06
1.738e-06
2.241e-06
5.619e-06
7.978e-06
2.565e-06
1.725e-06
1.328e-06
3.194e-06
8.877e-06
4.622e-05
6.083e-05
8.68e-05
8.233e-05
9.598e-05
0.0001049
0.0001008
7.823e-05
7.162e-05
0.0001318
0.0002838
0.0006343
0.00086
0.001105
0.001118
0.003172
0.003645
0.005955
0.008418
0.01117
0.008666
0.006964
0.003428
0.001364
0.0005768
0.0004444
0.0009057
0.0003868
0.0001288
1.465e-05
1.355e-06
9.158e-08
6.149e-08
3.314e-08
1.552e-07
1.857e-06
3.748e-05
4.916e-05
1.87e-05
8.824e-07
2.616e-07
6.46e-07
5.596e-06
3.113e-05
5.26e-05
4.749e-05
4.365e-05
3.578e-05
3.909e-05
3.465e-05
3.643e-05
8.796e-05
0.0008086
0.01145
0.2651
0.8892
0.9858
0.9975
0.9997
1
1
1
1
1
1
1
1
1
1
1
1
1
1
1
1
1
1
1
1
1
1
1
1
1
1
1
1
1
1
1
1
1
1
1
1
1
1
1
1
1
1
1
1
1
1
1
1
1
1
1
1
1
1
1
1
1
1
1
1
1
1
1
1
1
1
1
1
1
1
1
1
1
1
1
1
1
1
1
1
1
1
1
1
1
1
1
1
1
1
3.445e-06
2.843e-06
4.489e-06
2.458e-06
4.141e-06
3.358e-06
2.191e-06
4.618e-06
1.04e-05
9.506e-06
1.327e-05
2.613e-05
4.051e-05
5.638e-05
6.629e-05
3.448e-05
8.788e-06
2.632e-06
1.22e-06
1.041e-06
3.461e-06
1.636e-05
8.315e-05
0.0002218
0.0004105
0.0004762
0.001016
0.001041
0.001379
0.001598
0.002321
0.003616
0.006034
0.004256
0.001558
0.0005064
0.0002895
0.0006421
0.0006331
0.0006302
0.0002414
5.264e-05
7.681e-06
5.962e-06
3.398e-06
1.613e-05
8.097e-05
0.0007147
0.001074
0.0006235
8.248e-05
2.097e-05
1.771e-05
2.754e-05
5.127e-05
3.178e-05
2.117e-05
1.724e-05
2.408e-05
6.197e-05
0.0002752
0.001317
0.01274
0.2937
0.8909
0.9843
0.9983
0.9998
1
1
1
1
1
1
1
1
1
1
1
1
1
1
1
1
1
1
1
1
1
1
1
1
1
1
1
1
1
1
1
1
1
1
1
1
1
1
1
1
1
1
1
1
1
1
1
1
1
1
1
1
1
1
1
1
1
1
1
1
1
1
1
1
1
1
1
1
1
1
1
1
1
1
1
1
1
1
1
1
1
1
1
1
1
1
1
1
1
1
1
1
9.619e-06
8.869e-06
1.77e-05
4.537e-06
3.515e-06
2.546e-06
3.67e-06
1.679e-05
4.833e-05
2.462e-05
1.532e-05
1.08e-05
8.791e-06
3.445e-05
2.424e-05
3.185e-06
4.308e-07
6.441e-08
2.568e-08
2.239e-08
1.456e-07
2.244e-06
2.59e-05
0.0001387
0.0004818
0.0005015
0.0008482
0.00101
0.000943
0.0009655
0.001594
0.003648
0.008444
0.008734
0.003235
0.0008513
0.0004808
0.000805
0.001215
0.002181
0.002416
0.001223
0.0004534
0.0004675
0.0002929
0.0003058
0.0004474
0.001262
0.002774
0.004433
0.002619
0.0008618
0.0004642
0.0001615
0.0001128
3.971e-05
3.044e-05
3.949e-05
0.0002118
0.001084
0.02136
0.3125
0.8742
0.9823
0.9982
0.9998
1
1
1
1
1
1
1
1
1
1
1
1
1
1
1
1
1
1
1
1
1
1
1
1
1
1
1
1
1
1
1
1
1
1
1
1
1
1
1
1
1
1
1
1
1
1
1
1
1
1
1
1
1
1
1
1
1
1
1
1
1
1
1
1
1
1
1
1
1
1
1
1
1
1
1
1
1
1
1
1
1
1
1
1
1
1
1
1
1
1
1
1
1
1
1.922e-05
2.065e-05
7.343e-05
1.698e-05
3.974e-06
1.936e-06
5.031e-06
2.51e-05
7.719e-05
4.256e-05
1.425e-05
8.128e-06
1.069e-05
5.981e-05
1.035e-05
4.481e-07
5.04e-08
8.577e-09
6.125e-09
5.926e-09
5.384e-08
9.894e-07
1.561e-05
0.0001298
0.0009718
0.0007603
0.001407
0.001563
0.0009124
0.0006562
0.0007881
0.002068
0.005713
0.007286
0.003493
0.001465
0.001386
0.001858
0.003376
0.005142
0.006849
0.005963
0.005105
0.003764
0.002022
0.0009672
0.0007227
0.001151
0.002688
0.004621
0.003007
0.001143
0.0005914
0.0002191
0.0001986
0.0001316
0.0002327
0.0009491
0.01142
0.1893
0.8677
0.98
0.9983
0.9998
1
1
1
1
1
1
1
1
1
1
1
1
1
1
1
1
1
1
1
1
1
1
1
1
1
1
1
1
1
1
1
1
1
1
1
1
1
1
1
1
1
1
1
1
1
1
1
1
1
1
1
1
1
1
1
1
1
1
1
1
1
1
1
1
1
1
1
1
1
1
1
1
1
1
1
1
1
1
1
1
1
1
1
1
1
1
1
1
1
1
1
1
1
1
1
1
2.91e-05
3.881e-05
0.0001067
2.941e-05
5.099e-06
5.862e-06
1.401e-05
8.091e-05
0.0001198
5.431e-05
1.243e-05
5.671e-06
8.085e-06
3.23e-05
1.684e-06
1.068e-07
2.692e-08
1.392e-08
2.189e-08
2.439e-08
1.527e-07
1.263e-06
2.143e-05
0.0001495
0.00123
0.0009867
0.001662
0.002125
0.001617
0.001424
0.001411
0.002584
0.006145
0.007192
0.003926
0.002495
0.003299
0.004069
0.005303
0.005671
0.007874
0.00953
0.01714
0.01517
0.008079
0.002463
0.0008678
0.0005842
0.0009464
0.001772
0.001472
0.001014
0.0008975
0.0006086
0.000778
0.002104
0.01248
0.09824
0.8061
0.9766
0.9975
0.9998
1
1
1
1
1
1
1
1
1
1
1
1
1
1
1
1
1
1
1
1
1
1
1
1
1
1
1
1
1
1
1
1
1
1
1
1
1
1
1
1
1
1
1
1
1
1
1
1
1
1
1
1
1
1
1
1
1
1
1
1
1
1
1
1
1
1
1
1
1
1
1
1
1
1
1
1
1
1
1
1
1
1
1
1
1
1
1
1
1
1
1
1
1
1
1
1
1
1
2.274e-05
3.8e-05
7.269e-05
2.341e-05
3.601e-06
8.965e-06
3.861e-05
0.0003234
0.0003275
0.0001197
2.481e-05
7.912e-06
5.757e-06
1.224e-05
6.337e-07
7.627e-08
1.025e-07
2.267e-07
5.815e-07
6.572e-07
2.176e-06
7.91e-06
0.0001025
0.0005784
0.003598
0.002652
0.003669
0.003543
0.002508
0.001705
0.001808
0.003146
0.007519
0.009776
0.006299
0.004891
0.007582
0.009986
0.00926
0.005219
0.0039
0.003392
0.00647
0.007857
0.00556
0.002353
0.00125
0.0004141
0.0002699
0.000356
0.0003236
0.000495
0.001402
0.002745
0.007627
0.05664
0.6645
0.9505
0.9962
0.9997
1
1
1
1
1
1
1
1
1
1
1
1
1
1
1
1
1
1
1
1
1
1
1
1
1
1
1
1
1
1
1
1
1
1
1
1
1
1
1
1
1
1
1
1
1
1
1
1
1
1
1
1
1
1
1
1
1
1
1
1
1
1
1
1
1
1
1
1
1
1
1
1
1
1
1
1
1
1
1
1
1
1
1
1
1
1
1
1
1
1
1
1
1
1
1
1
1
1
1
1
3.279e-05
3.99e-05
5.561e-05
2.45e-05
4.858e-06
2.802e-05
0.0001097
0.0006283
0.0005636
0.000286
7.412e-05
2.967e-05
1.532e-05
1.633e-05
1.481e-06
4.709e-07
1.933e-06
7.1e-06
1.86e-05
1.917e-05
4.343e-05
8.232e-05
0.0003421
0.001258
0.003655
0.003262
0.003481
0.003673
0.003036
0.002235
0.002346
0.00433
0.01129
0.01719
0.0121
0.008239
0.00858
0.007346
0.004821
0.002147
0.000932
0.000718
0.001138
0.00238
0.003673
0.003476
0.002642
0.0006733
0.000313
0.0002128
0.0002939
0.0006193
0.00494
0.01921
0.3127
0.9082
0.9911
0.9992
1
1
1
1
1
1
1
1
1
1
1
1
1
1
1
1
1
1
1
1
1
1
1
1
1
1
1
1
1
1
1
1
1
1
1
1
1
1
1
1
1
1
1
1
1
1
1
1
1
1
1
1
1
1
1
1
1
1
1
1
1
1
1
1
1
1
1
1
1
1
1
1
1
1
1
1
1
1
1
1
1
1
1
1
1
1
1
1
1
1
1
1
1
1
1
1
1
1
1
1
1
1
6.98e-05
7.118e-05
9.331e-05
3.004e-05
8.692e-06
4.1e-05
9.494e-05
0.0004914
0.0005471
0.0004325
0.0001241
0.0001059
8.114e-05
7.131e-05
1.39e-05
7.007e-06
2.017e-05
4.564e-05
9.006e-05
0.0001788
0.000341
0.0004413
0.0008174
0.001147
0.001233
0.001746
0.003253
0.002654
0.001997
0.001271
0.0008824
0.001407
0.005146
0.01223
0.01261
0.008927
0.007015
0.006112
0.004165
0.002212
0.0007673
0.0003976
0.0004079
0.0007166
0.00134
0.002232
0.002963
0.001031
0.0008497
0.0005828
0.001285
0.003747
0.0788
0.7167
0.9747
0.9985
0.9999
1
1
1
1
1
1
1
1
1
1
1
1
1
1
1
1
1
1
1
1
1
1
1
1
1
1
1
1
1
1
1
1
1
1
1
1
1
1
1
1
1
1
1
1
1
1
1
1
1
1
1
1
1
1
1
1
1
1
1
1
1
1
1
1
1
1
1
1
1
1
1
1
1
1
1
1
1
1
1
1
1
1
1
1
1
1
1
1
1
1
1
1
1
1
1
1
1
1
1
1
1
1
1
0.0001549
0.0001344
0.0001477
3.625e-05
1.65e-05
4.084e-05
4.097e-05
0.0002075
0.0004001
0.0004943
0.0002085
0.0003959
0.0002453
0.0002645
0.0001206
0.0001181
0.0001985
0.0002265
0.000174
0.0003193
0.0007396
0.0007972
0.001135
0.0009257
0.0007067
0.001307
0.004368
0.004312
0.002984
0.001773
0.00078
0.0008313
0.002112
0.006983
0.01306
0.01364
0.01188
0.00867
0.00555
0.003424
0.001438
0.0005904
0.0003978
0.0005051
0.0005685
0.001138
0.002316
0.001794
0.003677
0.008263
0.04834
0.5474
0.9597
0.9969
0.9999
1
1
1
1
1
1
1
1
1
1
1
1
1
1
1
1
1
1
1
1
1
1
1
1
1
1
1
0.9999
0.9996
0.9971
0.9954
0.9933
0.9912
0.9917
0.991
0.9909
0.9934
0.9943
0.9953
0.997
0.9986
0.9996
0.9999
1
1
1
1
1
1
1
1
1
1
1
1
1
1
1
1
1
1
1
1
1
1
1
1
1
1
1
1
1
1
1
1
1
1
1
1
1
1
1
1
1
1
1
1
1
1
1
1
1
1
1
1
1
1
1
1
1
1
1
1
1
1
0.0002913
0.0002199
0.0002743
5.622e-05
3.471e-05
1.829e-05
8.851e-06
4.424e-05
0.0002262
0.0005493
0.0006632
0.00131
0.0008243
0.001103
0.0007892
0.0009305
0.0006311
0.0004741
0.0001964
0.0003096
0.0005141
0.0005384
0.0009845
0.0007568
0.001232
0.002777
0.0103
0.009731
0.006797
0.003081
0.001142
0.0006907
0.001029
0.003845
0.01125
0.02105
0.02339
0.01312
0.007471
0.005032
0.002536
0.001308
0.0008793
0.0006789
0.0006386
0.001123
0.002945
0.006527
0.02936
0.205
0.8454
0.9853
0.9995
1
1
1
1
1
1
1
1
1
1
1
1
1
1
1
1
1
1
1
1
1
1
1
1
1
1
0.9997
0.9979
0.9882
0.9616
0.8838
0.6173
0.2402
0.08204
0.04244
0.02445
0.01594
0.01622
0.01804
0.03499
0.1149
0.4408
0.7129
0.9129
0.9775
0.9941
0.9982
0.9996
0.9999
1
1
1
1
1
1
1
1
1
1
1
1
1
1
1
1
1
1
1
1
1
1
1
1
1
1
1
1
1
1
1
1
1
1
1
1
1
1
1
1
1
1
1
1
1
1
1
1
1
1
1
1
1
1
1
1
1
1
0.0002306
0.00019
0.0002415
5.304e-05
7.393e-05
1.908e-05
9.238e-06
2.738e-05
0.0001806
0.0003555
0.0008209
0.001516
0.001252
0.001938
0.001916
0.002858
0.001923
0.001069
0.0005767
0.0003884
0.0004873
0.0004603
0.0007428
0.0006719
0.00103
0.001669
0.005682
0.007534
0.008599
0.005843
0.001973
0.0005853
0.0003826
0.0008139
0.00322
0.01036
0.01653
0.009022
0.00493
0.003858
0.003611
0.003144
0.002796
0.00202
0.001943
0.004372
0.01669
0.09702
0.7132
0.9609
0.9974
0.9999
1
1
1
1
1
1
1
1
1
1
1
1
1
1
1
1
1
1
1
1
1
1
1
1
0.9998
0.9974
0.9806
0.8885
0.6431
0.1923
0.04891
0.01444
0.003859
0.0008562
0.0003227
0.0002873
0.0001794
0.0001408
0.0001451
0.000156
0.000394
0.001488
0.004609
0.01025
0.02763
0.06111
0.182
0.5487
0.8056
0.9452
0.9916
0.9987
0.9998
1
1
1
1
1
1
1
1
1
1
1
1
1
1
1
1
1
1
1
1
1
1
1
1
1
1
1
1
1
1
1
1
1
1
1
1
1
1
1
1
1
1
1
1
1
1
1
1
1
1
1
1
0.9999
0.9996
0.9981
0.000192
0.0002268
0.0004067
7.627e-05
0.0001259
1.648e-05
8.82e-06
1.631e-05
0.0002602
0.0003812
0.001004
0.001105
0.001225
0.001889
0.001624
0.002086
0.002205
0.001819
0.001314
0.0005094
0.0002519
0.0001524
0.0003395
0.0007214
0.001463
0.001372
0.002987
0.004334
0.005007
0.00366
0.00155
0.0003971
0.0002104
0.0004637
0.001874
0.007542
0.01469
0.01029
0.005517
0.004909
0.006433
0.006584
0.006515
0.005455
0.00713
0.01906
0.1414
0.7872
0.9813
0.9989
1
1
1
1
1
1
1
1
1
1
1
1
1
1
1
1
1
1
1
1
1
1
1
0.9999
0.9989
0.9892
0.9193
0.6667
0.12
0.0224
0.004328
0.001266
0.0003554
0.0001142
3.616e-05
1.39e-05
4.994e-06
6.667e-06
7.769e-06
6.349e-06
7.525e-06
9.941e-06
3.645e-05
0.0001536
0.0003262
0.000459
0.0006869
0.0009214
0.001687
0.005696
0.01465
0.04585
0.1824
0.706
0.9172
0.9864
0.9983
0.9997
1
1
1
1
1
1
1
1
1
1
1
1
1
1
1
1
1
1
1
1
1
1
1
1
1
1
1
1
1
1
1
1
1
1
1
1
1
1
1
1
1
1
1
1
1
0.9999
0.9997
0.9977
0.9885
0.9457
0.8571
0.7756
0.0002308
0.0003308
0.0008254
0.0001302
0.0001571
1.692e-05
1.413e-05
3.055e-05
0.0002616
0.0003628
0.0009468
0.001128
0.002033
0.002629
0.001223
0.001267
0.002193
0.003818
0.002631
0.0005239
8.206e-05
3.801e-05
0.0001199
0.0005151
0.00171
0.001622
0.001895
0.002892
0.003466
0.002356
0.001206
0.0003499
0.0001908
0.0004439
0.001342
0.004959
0.008341
0.005992
0.003814
0.004353
0.007729
0.01014
0.01236
0.01382
0.03182
0.363
0.9099
0.9945
0.9998
1
1
1
1
1
1
1
1
1
1
1
1
1
1
1
1
1
1
1
1
1
1
0.9999
0.9987
0.9845
0.8493
0.2124
0.02262
0.005891
0.001205
0.0003908
0.0001449
7.699e-05
2.147e-05
6.759e-06
1.64e-06
1.651e-06
1.225e-06
3.072e-06
4.382e-06
6.185e-06
7.262e-06
8.005e-06
1.555e-05
4.028e-05
5.015e-05
4.815e-05
4.447e-05
4.348e-05
5.248e-05
0.0001299
0.0002589
0.0005252
0.002397
0.01513
0.04006
0.2154
0.7385
0.9096
0.9778
0.9965
0.9998
1
1
1
1
1
1
1
1
1
1
1
1
1
1
1
1
1
1
1
1
1
1
1
1
1
1
1
1
1
1
1
1
1
1
1
1
1
1
0.9999
0.9997
0.9975
0.9877
0.9349
0.723
0.2722
0.09117
0.03186
0.01623
0.005683
0.0001403
0.0002122
0.0008474
0.0001622
0.0001741
2.55e-05
2.128e-05
5.136e-05
0.0004654
0.0004964
0.000688
0.0009371
0.002833
0.004009
0.001024
0.0005241
0.0005521
0.001548
0.001692
0.0006028
5.947e-05
2.713e-05
5.957e-05
0.0004088
0.00162
0.001762
0.00166
0.002223
0.001876
0.001115
0.0006258
0.0003616
0.0003224
0.001132
0.002581
0.005036
0.004766
0.002987
0.001337
0.001201
0.002004
0.003876
0.01162
0.05167
0.5097
0.9482
0.9967
0.9999
1
1
1
1
1
1
1
1
1
1
1
1
1
1
1
1
1
1
1
1
1
0.9999
0.9977
0.9752
0.7168
0.09846
0.01317
0.002937
0.0009224
0.0004176
0.0001299
8.361e-05
4.849e-05
4.005e-05
1.241e-05
8.295e-06
4.249e-06
5.625e-06
5.115e-06
1.47e-05
2.299e-05
3.793e-05
3.859e-05
3.193e-05
4.367e-05
4.705e-05
3.661e-05
3.156e-05
2.502e-05
1.59e-05
9.602e-06
1.179e-05
1.139e-05
1.426e-05
4.96e-05
0.0001992
0.0005343
0.002701
0.02319
0.08439
0.4779
0.9409
0.9977
1
1
1
1
1
1
1
1
1
1
1
1
1
1
1
1
1
1
1
1
1
1
1
1
1
1
1
1
1
1
1
1
1
1
0.9998
0.9992
0.9964
0.9862
0.9395
0.793
0.2774
0.0729
0.0181
0.006104
0.00182
0.0005605
0.0001874
6.952e-05
6.624e-06
5.224e-05
8.123e-05
0.0005361
0.0001548
0.0001704
6.767e-05
5.75e-05
0.0001237
0.001333
0.0008565
0.0005418
0.0009002
0.003292
0.005098
0.001307
0.0004562
0.0003228
0.0009779
0.001304
0.001174
0.0001269