/*--------------------------------*- C++ -*----------------------------------*\
| =========                 |                                                 |
| \\      /  F ield         | OpenFOAM: The Open Source CFD Toolbox           |
|  \\    /   O peration     | Version:  5.x                                   |
|   \\  /    A nd           | Web:      www.OpenFOAM.org                      |
|    \\/     M anipulation  |                                                 |
\*---------------------------------------------------------------------------*/
FoamFile
{
    version     2.0;
    format      ascii;
    class       volVectorField;
    location    "175";
    object      U;
}
// * * * * * * * * * * * * * * * * * * * * * * * * * * * * * * * * * * * * * //

dimensions      [0 1 -1 0 0 0 0];

internalField   nonuniform List<vector> 
86400
(
(1.289e-08 -1.289e-08 0)
(3.871e-08 -1.29e-08 0)
(6.454e-08 -1.29e-08 0)
(9.038e-08 -1.29e-08 0)
(1.162e-07 -1.289e-08 0)
(1.42e-07 -1.289e-08 0)
(1.678e-07 -1.288e-08 0)
(1.936e-07 -1.287e-08 0)
(2.194e-07 -1.285e-08 0)
(2.451e-07 -1.283e-08 0)
(2.708e-07 -1.279e-08 0)
(2.963e-07 -1.274e-08 0)
(3.218e-07 -1.268e-08 0)
(3.471e-07 -1.264e-08 0)
(3.724e-07 -1.26e-08 0)
(3.976e-07 -1.255e-08 0)
(4.226e-07 -1.251e-08 0)
(4.476e-07 -1.245e-08 0)
(4.726e-07 -1.223e-08 0)
(4.973e-07 -1.232e-08 0)
(5.225e-07 -1.28e-08 0)
(5.478e-07 -1.324e-08 0)
(5.762e-07 -1.343e-08 0)
(6.043e-07 -1.333e-08 0)
(6.274e-07 -1.304e-08 0)
(6.604e-07 -1.153e-08 0)
(6.755e-07 -9.107e-09 0)
(6.951e-07 -8.271e-09 0)
(7.163e-07 -1.225e-08 0)
(7.455e-07 -1.731e-08 0)
(7.799e-07 -1.787e-08 0)
(8.152e-07 -1.758e-08 0)
(8.521e-07 -1.813e-08 0)
(8.889e-07 -1.792e-08 0)
(9.237e-07 -1.555e-08 0)
(9.641e-07 -1.063e-08 0)
(9.937e-07 -6.188e-09 0)
(1.039e-06 -1.028e-08 0)
(1.054e-06 -1.751e-08 0)
(1.127e-06 -2.676e-08 0)
(1.178e-06 -3.188e-08 0)
(1.256e-06 -2.844e-08 0)
(1.31e-06 -2.617e-08 0)
(1.35e-06 -3.031e-08 0)
(1.412e-06 -3.107e-08 0)
(1.467e-06 -2.841e-08 0)
(1.537e-06 -2.484e-08 0)
(1.572e-06 -1.309e-08 0)
(1.649e-06 -3.559e-09 0)
(1.609e-06 -1.202e-08 0)
(1.672e-06 -2.504e-08 0)
(1.753e-06 -2.541e-08 0)
(1.835e-06 -3.235e-08 0)
(1.987e-06 -7.37e-08 0)
(2.191e-06 -1.332e-07 0)
(2.499e-06 -1.726e-07 0)
(2.854e-06 -1.627e-07 0)
(3.054e-06 -8.992e-08 0)
(3.078e-06 2.813e-10 0)
(3.06e-06 4.931e-08 0)
(2.878e-06 3.051e-08 0)
(2.944e-06 -1.506e-08 0)
(2.97e-06 -6.205e-08 0)
(3.089e-06 -1.195e-07 0)
(3.314e-06 -1.454e-07 0)
(3.684e-06 -1.034e-07 0)
(3.703e-06 -2.286e-08 0)
(3.822e-06 4.117e-08 0)
(3.528e-06 5.672e-08 0)
(3.453e-06 3.723e-09 0)
(3.551e-06 -9.734e-08 0)
(4.081e-06 -2.262e-07 0)
(4.558e-06 -2.387e-07 0)
(4.648e-06 -1.012e-07 0)
(4.639e-06 7.393e-08 0)
(4.417e-06 2.572e-07 0)
(3.826e-06 2.802e-07 0)
(3.542e-06 1.741e-07 0)
(3.475e-06 6.508e-08 0)
(3.302e-06 -1.617e-08 0)
(3.449e-06 -4.741e-08 0)
(3.424e-06 -4.18e-09 0)
(3.368e-06 2.818e-08 0)
(3.289e-06 4.135e-08 0)
(3.396e-06 4.828e-08 0)
(3.216e-06 5.139e-08 0)
(3.178e-06 4.346e-08 0)
(2.974e-06 2.122e-08 0)
(3.036e-06 8.59e-09 0)
(3.165e-06 -7.785e-10 0)
(3.074e-06 -2.772e-08 0)
(3.421e-06 -9.274e-08 0)
(3.762e-06 -1.953e-07 0)
(4.657e-06 -2.937e-07 0)
(5.202e-06 -2.792e-07 0)
(5.853e-06 -1.667e-07 0)
(5.558e-06 -2.856e-08 0)
(5.611e-06 3.799e-08 0)
(5.522e-06 9.759e-08 0)
(5.236e-06 2.1e-07 0)
(4.823e-06 3.573e-07 0)
(3.942e-06 3.895e-07 0)
(3.257e-06 2.834e-07 0)
(2.733e-06 1.222e-07 0)
(2.539e-06 6.067e-09 0)
(2.576e-06 -3.599e-08 0)
(2.675e-06 -3.041e-08 0)
(2.874e-06 2.657e-08 0)
(2.638e-06 6.306e-08 0)
(2.464e-06 3.729e-08 0)
(2.364e-06 1.196e-08 0)
(2.365e-06 6.512e-09 0)
(2.368e-06 -1.086e-09 0)
(2.381e-06 9.388e-09 0)
(2.333e-06 3.143e-08 0)
(2.246e-06 5.369e-08 0)
(2.131e-06 6.857e-08 0)
(2e-06 6.7e-08 0)
(1.896e-06 4.366e-08 0)
(1.837e-06 2.018e-08 0)
(1.808e-06 1.1e-08 0)
(1.789e-06 6.805e-09 0)
(1.772e-06 2.958e-09 0)
(1.758e-06 3.108e-09 0)
(1.744e-06 6.015e-09 0)
(1.73e-06 6.494e-09 0)
(1.714e-06 5.708e-09 0)
(1.702e-06 4.93e-09 0)
(1.69e-06 3.539e-09 0)
(1.68e-06 2.609e-09 0)
(1.669e-06 -1.657e-10 0)
(1.676e-06 -3.569e-09 0)
(1.678e-06 -2.593e-09 0)
(1.674e-06 1.477e-09 0)
(1.669e-06 3.16e-09 0)
(1.662e-06 2.67e-09 0)
(1.657e-06 1.106e-09 0)
(1.661e-06 -4.96e-10 0)
(1.659e-06 -1.48e-09 0)
(1.662e-06 -3.699e-09 0)
(1.674e-06 -7.774e-09 0)
(1.694e-06 -1.16e-08 0)
(1.719e-06 -1.264e-08 0)
(1.744e-06 -1.241e-08 0)
(1.771e-06 -1.557e-08 0)
(1.808e-06 -2.117e-08 0)
(1.853e-06 -2.319e-08 0)
(1.902e-06 -2.723e-08 0)
(1.967e-06 -3.622e-08 0)
(2.033e-06 -3.124e-08 0)
(2.113e-06 -4.883e-08 0)
(2.22e-06 -5.305e-08 0)
(2.322e-06 -3.167e-08 0)
(2.232e-06 9.484e-08 0)
(2.29e-06 -3.66e-08 0)
(2.061e-06 2.26e-07 0)
(-9.319e-07 1.787e-06 0)
(1.21e-05 6.773e-06 0)
(0.0003131 -0.0001214 0)
(0.0086 -0.006112 0)
(1.29e-08 -3.871e-08 0)
(3.88e-08 -3.879e-08 0)
(6.468e-08 -3.879e-08 0)
(9.058e-08 -3.878e-08 0)
(1.165e-07 -3.878e-08 0)
(1.423e-07 -3.876e-08 0)
(1.682e-07 -3.873e-08 0)
(1.94e-07 -3.87e-08 0)
(2.199e-07 -3.864e-08 0)
(2.456e-07 -3.856e-08 0)
(2.713e-07 -3.846e-08 0)
(2.97e-07 -3.833e-08 0)
(3.226e-07 -3.817e-08 0)
(3.48e-07 -3.802e-08 0)
(3.734e-07 -3.789e-08 0)
(3.986e-07 -3.773e-08 0)
(4.237e-07 -3.76e-08 0)
(4.489e-07 -3.759e-08 0)
(4.743e-07 -3.753e-08 0)
(5.021e-07 -3.848e-08 0)
(5.296e-07 -4.003e-08 0)
(5.569e-07 -4.115e-08 0)
(5.868e-07 -4.195e-08 0)
(6.188e-07 -4.271e-08 0)
(6.483e-07 -4.15e-08 0)
(6.813e-07 -3.607e-08 0)
(7.041e-07 -2.88e-08 0)
(7.258e-07 -2.484e-08 0)
(7.585e-07 -3.471e-08 0)
(7.777e-07 -4.959e-08 0)
(8.143e-07 -5.227e-08 0)
(8.492e-07 -5.222e-08 0)
(8.938e-07 -6.033e-08 0)
(9.481e-07 -7.126e-08 0)
(1.024e-06 -8.261e-08 0)
(1.133e-06 -8.996e-08 0)
(1.265e-06 -9.084e-08 0)
(1.439e-06 -1.024e-07 0)
(1.506e-06 -1.036e-07 0)
(1.607e-06 -9.524e-08 0)
(1.571e-06 -7.676e-08 0)
(1.575e-06 -6.02e-08 0)
(1.582e-06 -5.331e-08 0)
(1.561e-06 -6.613e-08 0)
(1.563e-06 -8.049e-08 0)
(1.622e-06 -8.268e-08 0)
(1.687e-06 -7.663e-08 0)
(1.746e-06 -6.031e-08 0)
(1.912e-06 -5.199e-08 0)
(2.004e-06 -1.03e-07 0)
(2.187e-06 -1.898e-07 0)
(2.447e-06 -2.375e-07 0)
(2.719e-06 -2.575e-07 0)
(3.007e-06 -2.805e-07 0)
(2.853e-06 -2.603e-07 0)
(2.655e-06 -2.264e-07 0)
(2.462e-06 -1.675e-07 0)
(2.304e-06 -7.18e-08 0)
(2.209e-06 1.628e-08 0)
(2.274e-06 6.967e-08 0)
(2.245e-06 5.115e-08 0)
(2.268e-06 -1.574e-08 0)
(2.237e-06 -9.39e-08 0)
(2.238e-06 -1.962e-07 0)
(2.238e-06 -2.626e-07 0)
(2.456e-06 -2.472e-07 0)
(2.579e-06 -1.53e-07 0)
(2.864e-06 -5.545e-08 0)
(2.913e-06 -5.81e-09 0)
(3.067e-06 -1.016e-07 0)
(3.272e-06 -3.244e-07 0)
(3.712e-06 -4.923e-07 0)
(3.429e-06 -2.935e-07 0)
(3.213e-06 -2.208e-08 0)
(2.967e-06 1.798e-07 0)
(2.977e-06 3.622e-07 0)
(3.034e-06 3.959e-07 0)
(3.336e-06 2.396e-07 0)
(3.644e-06 7.402e-08 0)
(3.626e-06 -5.398e-08 0)
(3.694e-06 -1.296e-07 0)
(3.666e-06 -7.647e-08 0)
(3.903e-06 -1.886e-08 0)
(3.967e-06 2.509e-08 0)
(4.462e-06 4.157e-08 0)
(4.523e-06 6.242e-08 0)
(4.798e-06 7.72e-08 0)
(4.591e-06 -4.879e-08 0)
(5.03e-06 -2.511e-07 0)
(5.791e-06 -4.248e-07 0)
(6.213e-06 -6.218e-07 0)
(7.146e-06 -9.161e-07 0)
(7.621e-06 -9.711e-07 0)
(7.569e-06 -6.833e-07 0)
(7.022e-06 -2.767e-07 0)
(6.478e-06 1.324e-07 0)
(5.565e-06 3.26e-07 0)
(5.21e-06 3.054e-07 0)
(4.988e-06 3.272e-07 0)
(4.689e-06 4.755e-07 0)
(4.638e-06 7.058e-07 0)
(4.497e-06 8.805e-07 0)
(4.468e-06 8.254e-07 0)
(4.162e-06 4.853e-07 0)
(3.618e-06 1.353e-07 0)
(3.408e-06 -3.736e-08 0)
(3.424e-06 -4.899e-08 0)
(3.488e-06 1.114e-07 0)
(3.254e-06 2.27e-07 0)
(2.964e-06 1.986e-07 0)
(2.582e-06 1.251e-07 0)
(2.478e-06 7.417e-08 0)
(2.381e-06 3.316e-08 0)
(2.321e-06 4.977e-08 0)
(2.247e-06 8.653e-08 0)
(2.189e-06 1.202e-07 0)
(2.15e-06 1.352e-07 0)
(2.161e-06 1.18e-07 0)
(2.238e-06 6.284e-08 0)
(2.271e-06 2.195e-08 0)
(2.278e-06 3.175e-08 0)
(2.25e-06 4.632e-08 0)
(2.18e-06 4.454e-08 0)
(2.103e-06 4.137e-08 0)
(2.049e-06 3.883e-08 0)
(2.021e-06 3.44e-08 0)
(1.977e-06 3.084e-08 0)
(1.952e-06 3.107e-08 0)
(1.908e-06 3.357e-08 0)
(1.857e-06 3.441e-08 0)
(1.806e-06 2.455e-08 0)
(1.775e-06 1.176e-08 0)
(1.736e-06 9.371e-09 0)
(1.714e-06 1.439e-08 0)
(1.699e-06 1.601e-08 0)
(1.682e-06 1.21e-08 0)
(1.674e-06 5.95e-09 0)
(1.674e-06 2.007e-09 0)
(1.665e-06 -1.425e-10 0)
(1.66e-06 -8.416e-09 0)
(1.671e-06 -2.346e-08 0)
(1.693e-06 -3.686e-08 0)
(1.722e-06 -3.877e-08 0)
(1.744e-06 -3.472e-08 0)
(1.766e-06 -4.507e-08 0)
(1.804e-06 -6.594e-08 0)
(1.851e-06 -6.8e-08 0)
(1.893e-06 -7.89e-08 0)
(1.967e-06 -1.172e-07 0)
(2.025e-06 -8.086e-08 0)
(2.095e-06 -1.611e-07 0)
(2.242e-06 -1.813e-07 0)
(2.477e-06 -1.227e-07 0)
(2.239e-06 3.224e-07 0)
(2.507e-06 -1.19e-06 0)
(5.773e-06 4.901e-06 0)
(5.992e-05 2.35e-06 0)
(0.002503 -0.0008911 0)
(0.009372 -0.007207 0)
(0.01697 -0.01391 0)
(1.29e-08 -6.455e-08 0)
(3.88e-08 -6.468e-08 0)
(6.469e-08 -6.468e-08 0)
(9.059e-08 -6.467e-08 0)
(1.165e-07 -6.466e-08 0)
(1.424e-07 -6.463e-08 0)
(1.682e-07 -6.458e-08 0)
(1.941e-07 -6.452e-08 0)
(2.199e-07 -6.442e-08 0)
(2.457e-07 -6.431e-08 0)
(2.715e-07 -6.417e-08 0)
(2.972e-07 -6.398e-08 0)
(3.228e-07 -6.374e-08 0)
(3.484e-07 -6.348e-08 0)
(3.737e-07 -6.319e-08 0)
(3.989e-07 -6.299e-08 0)
(4.243e-07 -6.314e-08 0)
(4.506e-07 -6.382e-08 0)
(4.765e-07 -6.488e-08 0)
(5.067e-07 -6.673e-08 0)
(5.312e-07 -6.826e-08 0)
(5.58e-07 -7.11e-08 0)
(5.892e-07 -7.51e-08 0)
(6.284e-07 -7.872e-08 0)
(6.573e-07 -7.88e-08 0)
(7.057e-07 -7.658e-08 0)
(7.495e-07 -7.096e-08 0)
(7.99e-07 -6.816e-08 0)
(8.767e-07 -7.785e-08 0)
(9.028e-07 -9.296e-08 0)
(9.25e-07 -9.484e-08 0)
(9.817e-07 -9.611e-08 0)
(1.025e-06 -1.098e-07 0)
(1.061e-06 -1.321e-07 0)
(1.105e-06 -1.594e-07 0)
(1.155e-06 -1.807e-07 0)
(1.211e-06 -1.846e-07 0)
(1.315e-06 -1.81e-07 0)
(1.274e-06 -1.439e-07 0)
(1.315e-06 -1.027e-07 0)
(1.293e-06 -7.084e-08 0)
(1.345e-06 -5.961e-08 0)
(1.375e-06 -5.831e-08 0)
(1.446e-06 -9.449e-08 0)
(1.504e-06 -1.458e-07 0)
(1.626e-06 -1.9e-07 0)
(1.815e-06 -2.34e-07 0)
(2.012e-06 -2.613e-07 0)
(2.302e-06 -2.645e-07 0)
(2.519e-06 -2.901e-07 0)
(2.425e-06 -3.202e-07 0)
(2.272e-06 -3.008e-07 0)
(2.109e-06 -2.537e-07 0)
(2.021e-06 -1.822e-07 0)
(1.868e-06 -1.037e-07 0)
(1.892e-06 -7.316e-08 0)
(1.865e-06 -4.758e-08 0)
(1.831e-06 -6.686e-09 0)
(1.811e-06 2.552e-08 0)
(1.851e-06 4.477e-08 0)
(1.869e-06 3.134e-08 0)
(1.907e-06 -2.586e-08 0)
(1.932e-06 -1.182e-07 0)
(2.026e-06 -2.459e-07 0)
(2.031e-06 -3.357e-07 0)
(2.104e-06 -3.448e-07 0)
(2.151e-06 -2.891e-07 0)
(2.322e-06 -2.205e-07 0)
(2.365e-06 -1.648e-07 0)
(2.516e-06 -2.223e-07 0)
(2.601e-06 -3.747e-07 0)
(2.618e-06 -3.781e-07 0)
(2.397e-06 -1.779e-07 0)
(2.531e-06 -3.082e-08 0)
(2.674e-06 7.257e-08 0)
(3.008e-06 1.452e-07 0)
(3.609e-06 3.518e-08 0)
(4.643e-06 -2.621e-07 0)
(5.344e-06 -3.213e-07 0)
(5.676e-06 -2.164e-07 0)
(5.654e-06 -1.908e-07 0)
(5.214e-06 -1.813e-07 0)
(5.537e-06 -3.068e-07 0)
(5.656e-06 -4.844e-07 0)
(7.044e-06 -5.951e-07 0)
(7.244e-06 -3.456e-07 0)
(7.703e-06 2.592e-08 0)
(7.383e-06 7.02e-08 0)
(6.731e-06 -1.445e-07 0)
(5.944e-06 -3.061e-07 0)
(4.972e-06 -4.871e-07 0)
(4.46e-06 -6.671e-07 0)
(3.928e-06 -5.544e-07 0)
(4.158e-06 -3.201e-07 0)
(4.255e-06 4.795e-09 0)
(4.434e-06 3.222e-07 0)
(4.504e-06 4.945e-07 0)
(4.681e-06 4.744e-07 0)
(4.515e-06 4.446e-07 0)
(4.422e-06 4.726e-07 0)
(4.666e-06 5.254e-07 0)
(5.03e-06 7.155e-07 0)
(5.663e-06 8.71e-07 0)
(5.761e-06 7.002e-07 0)
(5.344e-06 3.999e-07 0)
(5.077e-06 1.558e-07 0)
(4.646e-06 1.099e-07 0)
(4.635e-06 3.862e-07 0)
(4.236e-06 6.339e-07 0)
(3.684e-06 6.104e-07 0)
(3.161e-06 4.344e-07 0)
(3.02e-06 3.049e-07 0)
(2.707e-06 1.831e-07 0)
(2.579e-06 1.605e-07 0)
(2.456e-06 1.65e-07 0)
(2.41e-06 1.761e-07 0)
(2.362e-06 1.669e-07 0)
(2.365e-06 1.196e-07 0)
(2.362e-06 4.706e-08 0)
(2.254e-06 1.666e-08 0)
(2.196e-06 5.12e-08 0)
(2.189e-06 9.037e-08 0)
(2.128e-06 9.883e-08 0)
(2.065e-06 9.428e-08 0)
(2.009e-06 8.256e-08 0)
(1.971e-06 7.07e-08 0)
(1.919e-06 6.412e-08 0)
(1.886e-06 6.691e-08 0)
(1.836e-06 7.437e-08 0)
(1.799e-06 7.676e-08 0)
(1.768e-06 6.156e-08 0)
(1.741e-06 3.924e-08 0)
(1.71e-06 3.052e-08 0)
(1.69e-06 3.401e-08 0)
(1.673e-06 3.3e-08 0)
(1.658e-06 2.162e-08 0)
(1.658e-06 7.469e-09 0)
(1.666e-06 2.965e-09 0)
(1.662e-06 7.524e-09 0)
(1.647e-06 -5.336e-09 0)
(1.651e-06 -3.963e-08 0)
(1.683e-06 -7.106e-08 0)
(1.725e-06 -6.895e-08 0)
(1.741e-06 -4.545e-08 0)
(1.744e-06 -6.655e-08 0)
(1.789e-06 -1.234e-07 0)
(1.844e-06 -1.065e-07 0)
(1.857e-06 -1.176e-07 0)
(1.969e-06 -2.423e-07 0)
(1.994e-06 -3.87e-08 0)
(2.018e-06 -2.822e-07 0)
(2.267e-06 -5.042e-07 0)
(2.87e-06 -8.597e-07 0)
(1.459e-06 2.423e-06 0)
(1.746e-05 6.191e-06 0)
(0.0004471 -0.0001049 0)
(0.005252 -0.003089 0)
(0.01158 -0.008299 0)
(0.01773 -0.01394 0)
(0.02313 -0.01967 0)
(1.29e-08 -9.039e-08 0)
(3.881e-08 -9.059e-08 0)
(6.47e-08 -9.058e-08 0)
(9.061e-08 -9.057e-08 0)
(1.165e-07 -9.055e-08 0)
(1.424e-07 -9.052e-08 0)
(1.683e-07 -9.045e-08 0)
(1.942e-07 -9.036e-08 0)
(2.2e-07 -9.025e-08 0)
(2.458e-07 -9.011e-08 0)
(2.716e-07 -8.992e-08 0)
(2.974e-07 -8.966e-08 0)
(3.23e-07 -8.932e-08 0)
(3.485e-07 -8.891e-08 0)
(3.738e-07 -8.846e-08 0)
(3.989e-07 -8.812e-08 0)
(4.238e-07 -8.837e-08 0)
(4.483e-07 -8.901e-08 0)
(4.714e-07 -8.976e-08 0)
(4.941e-07 -9.048e-08 0)
(5.164e-07 -9.211e-08 0)
(5.389e-07 -9.632e-08 0)
(5.622e-07 -1.024e-07 0)
(5.881e-07 -1.069e-07 0)
(6.132e-07 -1.098e-07 0)
(6.418e-07 -1.102e-07 0)
(6.712e-07 -1.05e-07 0)
(6.944e-07 -9.878e-08 0)
(7.442e-07 -1.095e-07 0)
(8.146e-07 -1.37e-07 0)
(8.579e-07 -1.507e-07 0)
(9.533e-07 -1.599e-07 0)
(1.031e-06 -1.734e-07 0)
(1.095e-06 -1.904e-07 0)
(1.133e-06 -2.124e-07 0)
(1.166e-06 -2.34e-07 0)
(1.179e-06 -2.331e-07 0)
(1.263e-06 -2.061e-07 0)
(1.181e-06 -1.446e-07 0)
(1.222e-06 -1.225e-07 0)
(1.25e-06 -1.209e-07 0)
(1.336e-06 -1.383e-07 0)
(1.45e-06 -1.595e-07 0)
(1.596e-06 -1.894e-07 0)
(1.535e-06 -2.187e-07 0)
(1.566e-06 -2.78e-07 0)
(1.542e-06 -3.222e-07 0)
(1.529e-06 -3.448e-07 0)
(1.532e-06 -3.258e-07 0)
(1.62e-06 -2.73e-07 0)
(1.538e-06 -1.968e-07 0)
(1.491e-06 -1.664e-07 0)
(1.496e-06 -1.577e-07 0)
(1.515e-06 -1.332e-07 0)
(1.504e-06 -1.031e-07 0)
(1.555e-06 -8.709e-08 0)
(1.575e-06 -5.878e-08 0)
(1.611e-06 -2.461e-08 0)
(1.65e-06 3.801e-09 0)
(1.697e-06 2.192e-08 0)
(1.712e-06 1.074e-08 0)
(1.74e-06 -4.562e-08 0)
(1.777e-06 -1.468e-07 0)
(1.84e-06 -2.765e-07 0)
(1.87e-06 -3.648e-07 0)
(1.953e-06 -3.813e-07 0)
(1.965e-06 -3.507e-07 0)
(2.048e-06 -3.249e-07 0)
(2.092e-06 -3.058e-07 0)
(2.275e-06 -3.58e-07 0)
(2.549e-06 -4.761e-07 0)
(2.643e-06 -4.215e-07 0)
(2.555e-06 -2.404e-07 0)
(2.76e-06 -1.876e-07 0)
(2.752e-06 -2.062e-07 0)
(3.167e-06 -3.457e-07 0)
(3.896e-06 -7.033e-07 0)
(4.743e-06 -9.826e-07 0)
(4.544e-06 -6.386e-07 0)
(4.835e-06 -2.789e-07 0)
(4.544e-06 -4.357e-08 0)
(4.26e-06 -8.076e-08 0)
(4.292e-06 -3.695e-07 0)
(4.103e-06 -6.717e-07 0)
(4.16e-06 -6.926e-07 0)
(3.973e-06 -3.613e-07 0)
(3.963e-06 9.464e-08 0)
(3.756e-06 2.53e-07 0)
(3.789e-06 1.3e-07 0)
(4.198e-06 -1.226e-07 0)
(4.757e-06 -4.016e-07 0)
(5.365e-06 -7.265e-07 0)
(5.12e-06 -7.55e-07 0)
(5.637e-06 -5.54e-07 0)
(5.477e-06 -4.018e-08 0)
(5.383e-06 2.322e-07 0)
(5.468e-06 3.497e-07 0)
(5.889e-06 5.269e-07 0)
(5.579e-06 5.557e-07 0)
(5.704e-06 4.557e-07 0)
(5.78e-06 2.679e-07 0)
(5.673e-06 2.57e-07 0)
(6.694e-06 6.13e-07 0)
(6.939e-06 1.047e-06 0)
(5.959e-06 1.155e-06 0)
(5.361e-06 9.847e-07 0)
(4.202e-06 6.494e-07 0)
(3.969e-06 6.857e-07 0)
(3.696e-06 9.177e-07 0)
(3.6e-06 9.511e-07 0)
(3.039e-06 6.805e-07 0)
(3.014e-06 5.359e-07 0)
(2.641e-06 3.591e-07 0)
(2.51e-06 2.72e-07 0)
(2.391e-06 2.072e-07 0)
(2.41e-06 1.562e-07 0)
(2.497e-06 1.06e-07 0)
(2.714e-06 7.509e-08 0)
(2.83e-06 8.982e-08 0)
(2.661e-06 1.178e-07 0)
(2.512e-06 1.318e-07 0)
(2.527e-06 1.635e-07 0)
(2.443e-06 1.855e-07 0)
(2.351e-06 1.859e-07 0)
(2.265e-06 1.676e-07 0)
(2.2e-06 1.461e-07 0)
(2.116e-06 1.298e-07 0)
(2.064e-06 1.274e-07 0)
(2e-06 1.32e-07 0)
(1.951e-06 1.291e-07 0)
(1.915e-06 1.102e-07 0)
(1.861e-06 8.516e-08 0)
(1.78e-06 7.283e-08 0)
(1.725e-06 7.406e-08 0)
(1.681e-06 6.623e-08 0)
(1.643e-06 3.748e-08 0)
(1.638e-06 4.541e-09 0)
(1.647e-06 -2.68e-09 0)
(1.64e-06 2.372e-08 0)
(1.61e-06 1.182e-08 0)
(1.604e-06 -5.978e-08 0)
(1.663e-06 -1.337e-07 0)
(1.747e-06 -1.155e-07 0)
(1.747e-06 -2.299e-08 0)
(1.688e-06 -6.633e-08 0)
(1.765e-06 -2.278e-07 0)
(1.857e-06 -1.088e-07 0)
(1.758e-06 -6.315e-08 0)
(2.05e-06 -5.616e-07 0)
(2.006e-06 1.288e-07 0)
(1.728e-06 -8.255e-07 0)
(2.218e-06 4.447e-07 0)
(1.467e-05 7.198e-06 0)
(0.0001455 -5.678e-06 0)
(0.002879 -0.0009951 0)
(0.0085 -0.005344 0)
(0.01414 -0.009793 0)
(0.01943 -0.01412 0)
(0.02408 -0.01876 0)
(0.02791 -0.02358 0)
(1.29e-08 -1.162e-07 0)
(3.881e-08 -1.165e-07 0)
(6.472e-08 -1.165e-07 0)
(9.063e-08 -1.165e-07 0)
(1.165e-07 -1.165e-07 0)
(1.425e-07 -1.164e-07 0)
(1.684e-07 -1.163e-07 0)
(1.943e-07 -1.162e-07 0)
(2.202e-07 -1.161e-07 0)
(2.46e-07 -1.159e-07 0)
(2.719e-07 -1.157e-07 0)
(2.977e-07 -1.154e-07 0)
(3.234e-07 -1.149e-07 0)
(3.489e-07 -1.144e-07 0)
(3.743e-07 -1.137e-07 0)
(3.991e-07 -1.13e-07 0)
(4.244e-07 -1.129e-07 0)
(4.477e-07 -1.124e-07 0)
(4.697e-07 -1.119e-07 0)
(4.911e-07 -1.122e-07 0)
(5.119e-07 -1.141e-07 0)
(5.324e-07 -1.184e-07 0)
(5.542e-07 -1.261e-07 0)
(5.79e-07 -1.336e-07 0)
(6.061e-07 -1.398e-07 0)
(6.384e-07 -1.461e-07 0)
(6.783e-07 -1.528e-07 0)
(7.378e-07 -1.661e-07 0)
(8.577e-07 -1.974e-07 0)
(9.099e-07 -2.084e-07 0)
(8.354e-07 -1.901e-07 0)
(8.681e-07 -2.009e-07 0)
(8.759e-07 -2.073e-07 0)
(8.973e-07 -2.137e-07 0)
(9.213e-07 -2.247e-07 0)
(9.409e-07 -2.358e-07 0)
(9.358e-07 -2.319e-07 0)
(9.86e-07 -2.099e-07 0)
(1.018e-06 -1.788e-07 0)
(1.127e-06 -1.802e-07 0)
(1.156e-06 -1.785e-07 0)
(1.188e-06 -1.903e-07 0)
(1.163e-06 -1.937e-07 0)
(1.178e-06 -1.916e-07 0)
(1.194e-06 -2.065e-07 0)
(1.222e-06 -2.509e-07 0)
(1.225e-06 -2.91e-07 0)
(1.219e-06 -3.207e-07 0)
(1.206e-06 -3.234e-07 0)
(1.244e-06 -2.88e-07 0)
(1.284e-06 -2.323e-07 0)
(1.345e-06 -2.077e-07 0)
(1.377e-06 -1.939e-07 0)
(1.433e-06 -1.729e-07 0)
(1.465e-06 -1.497e-07 0)
(1.533e-06 -1.346e-07 0)
(1.583e-06 -1.107e-07 0)
(1.637e-06 -8.815e-08 0)
(1.717e-06 -6.607e-08 0)
(1.823e-06 -3.836e-08 0)
(1.918e-06 -5.496e-08 0)
(2.063e-06 -1.599e-07 0)
(2.292e-06 -2.941e-07 0)
(2.439e-06 -3.881e-07 0)
(2.241e-06 -3.952e-07 0)
(2.104e-06 -3.497e-07 0)
(1.99e-06 -3.245e-07 0)
(1.946e-06 -3.569e-07 0)
(1.934e-06 -3.901e-07 0)
(2.001e-06 -4.37e-07 0)
(2.192e-06 -5.331e-07 0)
(2.239e-06 -4.732e-07 0)
(2.424e-06 -3.831e-07 0)
(2.78e-06 -4.246e-07 0)
(3.025e-06 -5.944e-07 0)
(3.377e-06 -9.367e-07 0)
(4.016e-06 -1.26e-06 0)
(3.75e-06 -9.696e-07 0)
(3.221e-06 -5.54e-07 0)
(3.504e-06 -2.508e-07 0)
(3.269e-06 1.837e-07 0)
(2.944e-06 1.102e-07 0)
(2.925e-06 -2.606e-07 0)
(3.085e-06 -6.148e-07 0)
(3.595e-06 -7.858e-07 0)
(4.194e-06 -5.102e-07 0)
(4.218e-06 3.76e-07 0)
(3.322e-06 5.841e-07 0)
(2.81e-06 1.376e-07 0)
(2.944e-06 -4.401e-07 0)
(3.228e-06 -8.868e-07 0)
(4.36e-06 -1.468e-06 0)
(4.843e-06 -1.58e-06 0)
(5.769e-06 -9.407e-07 0)
(5.21e-06 4.368e-07 0)
(5.115e-06 6.441e-07 0)
(4.286e-06 4.44e-07 0)
(4.469e-06 4.806e-07 0)
(4.424e-06 7.386e-07 0)
(4.103e-06 8.626e-07 0)
(3.354e-06 6.466e-07 0)
(2.639e-06 3.91e-07 0)
(2.375e-06 3.879e-07 0)
(2.453e-06 6.06e-07 0)
(2.69e-06 8.263e-07 0)
(3.4e-06 1.065e-06 0)
(3.615e-06 1.088e-06 0)
(3.448e-06 1.012e-06 0)
(3.216e-06 1.002e-06 0)
(3.761e-06 1.168e-06 0)
(3.353e-06 9.794e-07 0)
(3.543e-06 9.237e-07 0)
(3.062e-06 7.191e-07 0)
(2.852e-06 5.385e-07 0)
(2.574e-06 3.597e-07 0)
(2.451e-06 2.172e-07 0)
(2.279e-06 1.095e-07 0)
(2.18e-06 8.237e-08 0)
(2.026e-06 1.256e-07 0)
(1.986e-06 1.697e-07 0)
(1.935e-06 1.701e-07 0)
(1.937e-06 1.841e-07 0)
(1.905e-06 2.135e-07 0)
(1.874e-06 2.247e-07 0)
(1.841e-06 2.077e-07 0)
(1.821e-06 1.797e-07 0)
(1.804e-06 1.564e-07 0)
(1.802e-06 1.515e-07 0)
(1.785e-06 1.64e-07 0)
(1.756e-06 1.668e-07 0)
(1.735e-06 1.479e-07 0)
(1.709e-06 1.203e-07 0)
(1.691e-06 1.07e-07 0)
(1.674e-06 1.223e-07 0)
(1.623e-06 1.168e-07 0)
(1.583e-06 5.838e-08 0)
(1.596e-06 -1.595e-08 0)
(1.654e-06 -3.194e-08 0)
(1.651e-06 6.56e-08 0)
(1.554e-06 7.047e-08 0)
(1.502e-06 -8.636e-08 0)
(1.626e-06 -2.726e-07 0)
(1.835e-06 -2.054e-07 0)
(1.791e-06 1.289e-07 0)
(1.541e-06 5.386e-08 0)
(1.752e-06 -5.593e-07 0)
(2.02e-06 -1.743e-07 0)
(1.428e-06 -4.617e-08 0)
(2.387e-06 -1.557e-06 0)
(3.059e-06 3.152e-06 0)
(1.796e-05 1.131e-05 0)
(0.0001815 7.421e-06 0)
(0.001945 -0.0004557 0)
(0.006847 -0.003428 0)
(0.01218 -0.00724 0)
(0.01727 -0.01102 0)
(0.02177 -0.01466 0)
(0.02576 -0.01838 0)
(0.02914 -0.02229 0)
(0.03181 -0.0263 0)
(1.29e-08 -1.421e-07 0)
(3.882e-08 -1.424e-07 0)
(6.473e-08 -1.424e-07 0)
(9.066e-08 -1.424e-07 0)
(1.166e-07 -1.424e-07 0)
(1.425e-07 -1.423e-07 0)
(1.684e-07 -1.423e-07 0)
(1.944e-07 -1.422e-07 0)
(2.203e-07 -1.42e-07 0)
(2.463e-07 -1.418e-07 0)
(2.722e-07 -1.416e-07 0)
(2.981e-07 -1.412e-07 0)
(3.239e-07 -1.406e-07 0)
(3.496e-07 -1.399e-07 0)
(3.751e-07 -1.39e-07 0)
(4.001e-07 -1.38e-07 0)
(4.254e-07 -1.369e-07 0)
(4.481e-07 -1.351e-07 0)
(4.701e-07 -1.333e-07 0)
(4.902e-07 -1.324e-07 0)
(5.089e-07 -1.338e-07 0)
(5.26e-07 -1.377e-07 0)
(5.463e-07 -1.488e-07 0)
(5.697e-07 -1.593e-07 0)
(5.951e-07 -1.678e-07 0)
(6.202e-07 -1.778e-07 0)
(6.436e-07 -1.91e-07 0)
(6.553e-07 -2.043e-07 0)
(6.924e-07 -2.123e-07 0)
(7.101e-07 -1.957e-07 0)
(7.18e-07 -1.877e-07 0)
(7.54e-07 -2.087e-07 0)
(7.787e-07 -2.247e-07 0)
(8.036e-07 -2.379e-07 0)
(8.359e-07 -2.506e-07 0)
(8.648e-07 -2.577e-07 0)
(8.737e-07 -2.546e-07 0)
(8.952e-07 -2.435e-07 0)
(9.209e-07 -2.29e-07 0)
(9.541e-07 -2.161e-07 0)
(9.824e-07 -2.018e-07 0)
(1.022e-06 -2.004e-07 0)
(1.06e-06 -2.096e-07 0)
(1.099e-06 -2.263e-07 0)
(1.136e-06 -2.484e-07 0)
(1.163e-06 -2.795e-07 0)
(1.177e-06 -3.076e-07 0)
(1.179e-06 -3.283e-07 0)
(1.172e-06 -3.339e-07 0)
(1.169e-06 -3.119e-07 0)
(1.184e-06 -2.741e-07 0)
(1.218e-06 -2.461e-07 0)
(1.259e-06 -2.288e-07 0)
(1.303e-06 -2.121e-07 0)
(1.353e-06 -1.969e-07 0)
(1.407e-06 -1.846e-07 0)
(1.469e-06 -1.715e-07 0)
(1.544e-06 -1.681e-07 0)
(1.63e-06 -1.707e-07 0)
(1.735e-06 -1.633e-07 0)
(1.927e-06 -1.799e-07 0)
(2.045e-06 -2.65e-07 0)
(1.93e-06 -2.968e-07 0)
(1.875e-06 -2.662e-07 0)
(1.798e-06 -2.53e-07 0)
(1.774e-06 -2.358e-07 0)
(1.852e-06 -2.609e-07 0)
(1.978e-06 -3.764e-07 0)
(2.066e-06 -4.789e-07 0)
(2.263e-06 -5.657e-07 0)
(2.675e-06 -7.33e-07 0)
(2.592e-06 -7.123e-07 0)
(2.706e-06 -6.383e-07 0)
(2.805e-06 -6.256e-07 0)
(2.583e-06 -6.972e-07 0)
(2.467e-06 -8.823e-07 0)
(2.13e-06 -7.688e-07 0)
(1.86e-06 -5.442e-07 0)
(1.771e-06 -4.795e-07 0)
(2.063e-06 -4.36e-07 0)
(2.29e-06 1.049e-07 0)
(2.614e-06 5.531e-08 0)
(3.019e-06 -8.316e-07 0)
(3.878e-06 -1.875e-06 0)
(5.097e-06 -2.469e-06 0)
(6.313e-06 -1.523e-06 0)
(5.444e-06 2.412e-06 0)
(3.262e-06 2.304e-06 0)
(2.352e-06 2.599e-07 0)
(2.911e-06 -1.014e-06 0)
(3.243e-06 -1.306e-06 0)
(2.664e-06 -1.362e-06 0)
(2.312e-06 -1.451e-06 0)
(2.605e-06 -7.075e-07 0)
(2.332e-06 7.875e-07 0)
(1.862e-06 6.687e-07 0)
(1.8e-06 3.698e-07 0)
(1.976e-06 2.429e-07 0)
(2.106e-06 5.765e-07 0)
(2.022e-06 9.282e-07 0)
(1.882e-06 8.459e-07 0)
(1.823e-06 6.26e-07 0)
(1.82e-06 4.991e-07 0)
(1.871e-06 5.981e-07 0)
(1.88e-06 6.771e-07 0)
(1.973e-06 6.976e-07 0)
(2.08e-06 7.637e-07 0)
(2.221e-06 8.937e-07 0)
(2.294e-06 9.277e-07 0)
(2.337e-06 9.312e-07 0)
(2.228e-06 8.55e-07 0)
(2.292e-06 8.369e-07 0)
(2.233e-06 7.714e-07 0)
(2.21e-06 6.455e-07 0)
(2.106e-06 4.81e-07 0)
(2.02e-06 3.326e-07 0)
(1.919e-06 2.282e-07 0)
(1.857e-06 1.842e-07 0)
(1.808e-06 1.824e-07 0)
(1.805e-06 1.895e-07 0)
(1.79e-06 1.902e-07 0)
(1.786e-06 2.085e-07 0)
(1.759e-06 2.456e-07 0)
(1.718e-06 2.659e-07 0)
(1.675e-06 2.423e-07 0)
(1.653e-06 1.911e-07 0)
(1.664e-06 1.496e-07 0)
(1.686e-06 1.488e-07 0)
(1.672e-06 1.942e-07 0)
(1.609e-06 2.147e-07 0)
(1.56e-06 1.672e-07 0)
(1.582e-06 9.483e-08 0)
(1.661e-06 7.209e-08 0)
(1.681e-06 1.636e-07 0)
(1.585e-06 1.992e-07 0)
(1.493e-06 8.206e-08 0)
(1.533e-06 -9.34e-08 0)
(1.719e-06 -1.401e-07 0)
(1.737e-06 1.921e-07 0)
(1.455e-06 2.865e-07 0)
(1.26e-06 -7.047e-08 0)
(1.545e-06 -6.475e-07 0)
(2.152e-06 -5.951e-07 0)
(2.019e-06 3.734e-07 0)
(1.032e-06 5.74e-08 0)
(1.711e-06 -1.04e-06 0)
(3.394e-06 1.693e-06 0)
(5.15e-06 5.806e-06 0)
(4.612e-05 1.209e-05 0)
(0.0003835 -2.682e-05 0)
(0.003216 -0.0006854 0)
(0.007536 -0.002731 0)
(0.01221 -0.005904 0)
(0.01683 -0.009044 0)
(0.021 -0.01203 0)
(0.02478 -0.01511 0)
(0.02809 -0.01825 0)
(0.03095 -0.02147 0)
(0.0333 -0.02478 0)
(0.03507 -0.02812 0)
(1.29e-08 -1.679e-07 0)
(3.882e-08 -1.683e-07 0)
(6.474e-08 -1.683e-07 0)
(9.066e-08 -1.683e-07 0)
(1.166e-07 -1.683e-07 0)
(1.425e-07 -1.683e-07 0)
(1.685e-07 -1.682e-07 0)
(1.945e-07 -1.681e-07 0)
(2.205e-07 -1.68e-07 0)
(2.466e-07 -1.679e-07 0)
(2.727e-07 -1.676e-07 0)
(2.987e-07 -1.671e-07 0)
(3.246e-07 -1.664e-07 0)
(3.505e-07 -1.656e-07 0)
(3.763e-07 -1.646e-07 0)
(4.017e-07 -1.631e-07 0)
(4.273e-07 -1.611e-07 0)
(4.514e-07 -1.579e-07 0)
(4.727e-07 -1.531e-07 0)
(4.913e-07 -1.48e-07 0)
(5.086e-07 -1.473e-07 0)
(5.205e-07 -1.493e-07 0)
(5.414e-07 -1.669e-07 0)
(5.602e-07 -1.84e-07 0)
(5.859e-07 -1.927e-07 0)
(6.091e-07 -2.011e-07 0)
(6.294e-07 -2.111e-07 0)
(6.407e-07 -2.232e-07 0)
(6.613e-07 -2.323e-07 0)
(6.777e-07 -2.26e-07 0)
(6.947e-07 -2.229e-07 0)
(7.253e-07 -2.393e-07 0)
(7.544e-07 -2.554e-07 0)
(7.837e-07 -2.699e-07 0)
(8.167e-07 -2.802e-07 0)
(8.448e-07 -2.808e-07 0)
(8.613e-07 -2.73e-07 0)
(8.822e-07 -2.65e-07 0)
(9.086e-07 -2.587e-07 0)
(9.409e-07 -2.53e-07 0)
(9.728e-07 -2.453e-07 0)
(1.01e-06 -2.456e-07 0)
(1.047e-06 -2.524e-07 0)
(1.083e-06 -2.645e-07 0)
(1.115e-06 -2.805e-07 0)
(1.14e-06 -3.003e-07 0)
(1.158e-06 -3.184e-07 0)
(1.169e-06 -3.31e-07 0)
(1.177e-06 -3.341e-07 0)
(1.186e-06 -3.245e-07 0)
(1.206e-06 -3.058e-07 0)
(1.235e-06 -2.88e-07 0)
(1.27e-06 -2.734e-07 0)
(1.31e-06 -2.606e-07 0)
(1.354e-06 -2.497e-07 0)
(1.404e-06 -2.428e-07 0)
(1.462e-06 -2.409e-07 0)
(1.526e-06 -2.49e-07 0)
(1.596e-06 -2.686e-07 0)
(1.651e-06 -2.9e-07 0)
(1.796e-06 -2.979e-07 0)
(1.979e-06 -2.922e-07 0)
(1.884e-06 -2.673e-07 0)
(1.945e-06 -2.844e-07 0)
(2.081e-06 -3.346e-07 0)
(2.022e-06 -3.361e-07 0)
(2.377e-06 -4.579e-07 0)
(2.768e-06 -6.847e-07 0)
(2.859e-06 -8.073e-07 0)
(2.765e-06 -8.179e-07 0)
(3.16e-06 -8.069e-07 0)
(2.321e-06 -5.361e-07 0)
(2.159e-06 -5.032e-07 0)
(2.043e-06 -4.258e-07 0)
(1.897e-06 -5.205e-07 0)
(1.924e-06 -7.753e-07 0)
(1.859e-06 -6.618e-07 0)
(1.658e-06 -4.213e-07 0)
(1.514e-06 -5.77e-07 0)
(1.878e-06 -8.527e-07 0)
(1.838e-06 2.261e-07 0)
(1.214e-06 4.292e-08 0)
(1.088e-06 -1.096e-06 0)
(1.513e-06 -1.808e-06 0)
(2.411e-06 -2.26e-06 0)
(4e-06 -9.34e-07 0)
(4.228e-06 3.18e-06 0)
(4.395e-06 3.334e-06 0)
(9.491e-06 2.543e-06 0)
(2.359e-05 6.215e-07 0)
(1.975e-05 -2e-06 0)
(9.852e-06 -3.088e-06 0)
(4.609e-06 -2.97e-06 0)
(4.013e-06 -2.076e-06 0)
(3.174e-06 1.97e-06 0)
(1.431e-06 1.273e-06 0)
(1.437e-06 3.441e-07 0)
(2.085e-06 -6.512e-08 0)
(2.527e-06 7.983e-07 0)
(2.091e-06 1.533e-06 0)
(1.566e-06 1.062e-06 0)
(1.533e-06 5.961e-07 0)
(1.743e-06 3.668e-07 0)
(1.915e-06 5.725e-07 0)
(1.859e-06 7.764e-07 0)
(1.814e-06 7.067e-07 0)
(1.886e-06 7.477e-07 0)
(1.863e-06 9.047e-07 0)
(1.794e-06 9.03e-07 0)
(1.833e-06 8.806e-07 0)
(1.93e-06 8.609e-07 0)
(2.01e-06 8.859e-07 0)
(1.999e-06 8.331e-07 0)
(1.993e-06 7.257e-07 0)
(1.944e-06 5.816e-07 0)
(1.885e-06 4.366e-07 0)
(1.794e-06 3.118e-07 0)
(1.753e-06 2.336e-07 0)
(1.731e-06 1.934e-07 0)
(1.757e-06 1.817e-07 0)
(1.778e-06 1.891e-07 0)
(1.787e-06 2.243e-07 0)
(1.75e-06 2.928e-07 0)
(1.658e-06 3.388e-07 0)
(1.564e-06 2.923e-07 0)
(1.537e-06 1.845e-07 0)
(1.593e-06 9.891e-08 0)
(1.689e-06 1.063e-07 0)
(1.701e-06 2.471e-07 0)
(1.572e-06 3.248e-07 0)
(1.451e-06 1.988e-07 0)
(1.497e-06 -2.552e-09 0)
(1.713e-06 -6.889e-08 0)
(1.79e-06 2.487e-07 0)
(1.542e-06 4.279e-07 0)
(1.292e-06 1.823e-07 0)
(1.375e-06 -2.903e-07 0)
(1.943e-06 -6.097e-07 0)
(2.087e-06 4.104e-07 0)
(1.311e-06 6.643e-07 0)
(5.945e-07 -1.914e-07 0)
(1.21e-06 -1.183e-06 0)
(3.527e-06 -8.92e-08 0)
(5.693e-06 3.963e-06 0)
(1.132e-05 8.847e-06 0)
(7.251e-05 1.638e-05 0)
(0.0004545 -1.364e-05 0)
(0.002454 -0.0003647 0)
(0.006056 -0.001249 0)
(0.009992 -0.003477 0)
(0.01398 -0.005744 0)
(0.0179 -0.007841 0)
(0.02165 -0.01017 0)
(0.02511 -0.01273 0)
(0.02818 -0.01536 0)
(0.03091 -0.01807 0)
(0.03326 -0.02082 0)
(0.03521 -0.0236 0)
(0.03672 -0.02641 0)
(0.03775 -0.0292 0)
(1.29e-08 -1.938e-07 0)
(3.883e-08 -1.943e-07 0)
(6.473e-08 -1.942e-07 0)
(9.065e-08 -1.943e-07 0)
(1.166e-07 -1.943e-07 0)
(1.426e-07 -1.943e-07 0)
(1.686e-07 -1.942e-07 0)
(1.947e-07 -1.942e-07 0)
(2.208e-07 -1.941e-07 0)
(2.47e-07 -1.94e-07 0)
(2.732e-07 -1.937e-07 0)
(2.992e-07 -1.931e-07 0)
(3.253e-07 -1.925e-07 0)
(3.515e-07 -1.916e-07 0)
(3.777e-07 -1.905e-07 0)
(4.039e-07 -1.891e-07 0)
(4.305e-07 -1.87e-07 0)
(4.586e-07 -1.84e-07 0)
(4.853e-07 -1.796e-07 0)
(5.185e-07 -1.772e-07 0)
(5.569e-07 -1.75e-07 0)
(5.573e-07 -1.638e-07 0)
(5.943e-07 -1.826e-07 0)
(5.605e-07 -1.932e-07 0)
(5.812e-07 -2.118e-07 0)
(6.02e-07 -2.214e-07 0)
(6.211e-07 -2.28e-07 0)
(6.337e-07 -2.36e-07 0)
(6.496e-07 -2.432e-07 0)
(6.68e-07 -2.454e-07 0)
(6.839e-07 -2.483e-07 0)
(7.132e-07 -2.683e-07 0)
(7.45e-07 -2.875e-07 0)
(7.835e-07 -3.057e-07 0)
(8.273e-07 -3.146e-07 0)
(8.572e-07 -3.082e-07 0)
(8.706e-07 -2.946e-07 0)
(8.922e-07 -2.896e-07 0)
(9.284e-07 -2.912e-07 0)
(9.476e-07 -2.84e-07 0)
(9.736e-07 -2.779e-07 0)
(1.006e-06 -2.799e-07 0)
(1.039e-06 -2.865e-07 0)
(1.07e-06 -2.965e-07 0)
(1.1e-06 -3.089e-07 0)
(1.125e-06 -3.227e-07 0)
(1.146e-06 -3.35e-07 0)
(1.163e-06 -3.436e-07 0)
(1.179e-06 -3.46e-07 0)
(1.197e-06 -3.411e-07 0)
(1.219e-06 -3.309e-07 0)
(1.248e-06 -3.195e-07 0)
(1.282e-06 -3.092e-07 0)
(1.319e-06 -3.007e-07 0)
(1.36e-06 -2.948e-07 0)
(1.405e-06 -2.932e-07 0)
(1.454e-06 -2.974e-07 0)
(1.507e-06 -3.102e-07 0)
(1.56e-06 -3.331e-07 0)
(1.596e-06 -3.624e-07 0)
(1.612e-06 -3.613e-07 0)
(1.738e-06 -3.245e-07 0)
(1.76e-06 -2.992e-07 0)
(1.906e-06 -3.822e-07 0)
(2.202e-06 -5.109e-07 0)
(2.196e-06 -5.768e-07 0)
(2.618e-06 -7.468e-07 0)
(2.573e-06 -7.291e-07 0)
(2.133e-06 -5.731e-07 0)
(1.8e-06 -5.146e-07 0)
(1.678e-06 -3.685e-07 0)
(1.581e-06 -3.344e-07 0)
(1.729e-06 -4.93e-07 0)
(1.732e-06 -2.723e-07 0)
(1.51e-06 -4.051e-07 0)
(1.656e-06 -9.571e-07 0)
(1.962e-06 -7.079e-07 0)
(1.61e-06 -1.359e-07 0)