/*--------------------------------*- C++ -*----------------------------------*\
| =========                 |                                                 |
| \\      /  F ield         | OpenFOAM: The Open Source CFD Toolbox           |
|  \\    /   O peration     | Version:  5.x                                   |
|   \\  /    A nd           | Web:      www.OpenFOAM.org                      |
|    \\/     M anipulation  |                                                 |
\*---------------------------------------------------------------------------*/
FoamFile
{
    version     2.0;
    format      ascii;
    class       volScalarField;
    location    "5";
    object      gamma;
}
// * * * * * * * * * * * * * * * * * * * * * * * * * * * * * * * * * * * * * //

dimensions      [0 0 0 0 0 0 0];

internalField   nonuniform List<scalar> 
80000
(
0.47682
0.4749
0.47132
0.46566
0.45905
0.45346
0.45014
0.44766
0.44561
0.44386
0.44237
0.44107
0.43994
0.43893
0.43804
0.43724
0.43652
0.43586
0.43526
0.4347
0.43419
0.43372
0.43328
0.43286
0.43247
0.4321
0.43176
0.43143
0.43111
0.43081
0.43053
0.43025
0.42999
0.42973
0.42948
0.42924
0.42901
0.42878
0.42856
0.42835
0.42814
0.42793
0.42773
0.42753
0.42734
0.42715
0.42696
0.42678
0.42659
0.42641
0.42624
0.42606
0.42589
0.42571
0.42554
0.42537
0.42521
0.42504
0.42487
0.42471
0.42454
0.42438
0.42422
0.42406
0.4239
0.42374
0.42358
0.42342
0.42326
0.42311
0.42295
0.42279
0.42264
0.42248
0.42233
0.42217
0.42202
0.42187
0.42171
0.42156
0.42141
0.42125
0.4211
0.42095
0.4208
0.42065
0.4205
0.42035
0.4202
0.42005
0.4199
0.41975
0.4196
0.4192
0.41865
0.41803
0.41711
0.41614
0.41534
0.41428
0.41324
0.41238
0.41173
0.41127
0.41116
0.41106
0.41095
0.41084
0.41074
0.41063
0.41053
0.41043
0.41032
0.41022
0.41012
0.41002
0.40992
0.40982
0.40972
0.40962
0.40952
0.40942
0.40932
0.40923
0.40913
0.40903
0.40893
0.40884
0.40874
0.40864
0.40855
0.40845
0.40836
0.40826
0.40817
0.40807
0.40798
0.40788
0.40779
0.40769
0.4076
0.40751
0.40742
0.40732
0.40723
0.40714
0.40705
0.40696
0.40687
0.40677
0.40668
0.40659
0.4065
0.40641
0.40633
0.40624
0.40615
0.40606
0.40597
0.40588
0.4058
0.40571
0.40562
0.40553
0.40545
0.40536
0.40528
0.40519
0.40511
0.40502
0.40494
0.40485
0.40477
0.40468
0.4046
0.40452
0.40443
0.40435
0.40427
0.4042
0.40414
0.40411
0.40409
0.40406
0.40401
0.40394
0.40385
0.40377
0.40368
0.4036
0.40351
0.40343
0.40335
0.40326
0.40318
0.4031
0.40301
0.40293
0.40285
0.40277
0.40269
0.40261
0.40253
0.40245
0.40237
0.40229
0.40221
0.40213
0.40205
0.40197
0.40189
0.40182
0.40174
0.40166
0.40159
0.40151
0.40143
0.40136
0.40128
0.40121
0.40114
0.40109
0.40106
0.40104
0.40103
0.40099
0.40094
0.40086
0.40078
0.4007
0.40062
0.40054
0.40046
0.40038
0.4003
0.40022
0.40014
0.40006
0.39999
0.39991
0.39983
0.39976
0.39968
0.3996
0.39953
0.39945
0.39938
0.39931
0.39923
0.39916
0.3991
0.39907
0.39906
0.39906
0.39903
0.39897
0.39889
0.3988
0.39871
0.39862
0.39854
0.39845
0.39836
0.39828
0.39819
0.39811
0.39802
0.39794
0.39786
0.39778
0.39769
0.39761
0.39753
0.39745
0.39737
0.39729
0.39721
0.39713
0.39705
0.39697
0.3969
0.39682
0.39674
0.39667
0.39659
0.39652
0.39644
0.39637
0.39629
0.39622
0.39615
0.39608
0.396
0.39593
0.39586
0.39579
0.39572
0.39565
0.39558
0.39552
0.39545
0.39538
0.39531
0.39525
0.39518
0.39512
0.39505
0.39499
0.39493
0.39486
0.3948
0.39474
0.39468
0.39462
0.39456
0.3945
0.39444
0.39438
0.39433
0.39427
0.39422
0.39416
0.39411
0.39406
0.39401
0.39395
0.3939
0.39385
0.39381
0.39376
0.39371
0.39367
0.39362
0.39358
0.39354
0.3935
0.39346
0.39342
0.39338
0.39334
0.39331
0.39327
0.39324
0.39321
0.39318
0.39315
0.39312
0.39309
0.39306
0.39304
0.39302
0.39299
0.39297
0.39295
0.39293
0.39292
0.3929
0.39289
0.39287
0.39286
0.39285
0.39284
0.39283
0.39282
0.39281
0.3928
0.3928
0.39279
0.39278
0.39278
0.39278
0.39277
0.39277
0.39277
0.39277
0.39277
0.39276
0.39276
0.39276
0.39276
0.39276
0.39276
0.39276
0.39276
0.39276
0.39276
0.39276
0.39276
0.39276
0.39276
0.39276
0.39276
0.39276
0.39276
0.39274
0.39262
0.39253
0.39264
0.39277
0.393
0.47403
0.47293
0.47016
0.46562
0.45973
0.45456
0.45138
0.44896
0.44691
0.44515
0.44363
0.44231
0.44114
0.44011
0.43919
0.43835
0.4376
0.43692
0.43629
0.43571
0.43518
0.43468
0.43422
0.43378
0.43338
0.43299
0.43263
0.43228
0.43196
0.43164
0.43134
0.43105
0.43078
0.43051
0.43025
0.43
0.42976
0.42952
0.42929
0.42907
0.42885
0.42864
0.42843
0.42822
0.42802
0.42783
0.42763
0.42744
0.42725
0.42706
0.42688
0.4267
0.42652
0.42634
0.42616
0.42599
0.42581
0.42564
0.42547
0.4253
0.42513
0.42496
0.4248
0.42463
0.42447
0.4243
0.42414
0.42398
0.42381
0.42365
0.42349
0.42333
0.42317
0.42301
0.42285
0.42269
0.42253
0.42238
0.42222
0.42206
0.4219
0.42175
0.42159
0.42144
0.42128
0.42113
0.42097
0.42082
0.42066
0.42051
0.42018
0.41975
0.41928
0.41855
0.41778
0.4171
0.41618
0.41524
0.41444
0.41359
0.4128
0.41229
0.41184
0.4115
0.41139
0.41129
0.41118
0.41107
0.41096
0.41086
0.41075
0.41065
0.41054
0.41044
0.41033
0.41023
0.41013
0.41002
0.40992
0.40982
0.40972
0.40962
0.40952
0.40942
0.40932
0.40922
0.40912
0.40902
0.40892
0.40882
0.40872
0.40862
0.40853
0.40843
0.40833
0.40823
0.40814
0.40804
0.40794
0.40785
0.40775
0.40766
0.40756
0.40747
0.40737
0.40728
0.40719
0.40709
0.407
0.40691
0.40681
0.40672
0.40663
0.40654
0.40645
0.40636
0.40627
0.40617
0.40608
0.40599
0.40591
0.40582
0.40573
0.40564
0.40555
0.40546
0.40537
0.40529
0.4052
0.40511
0.40503
0.40494
0.40485
0.40477
0.40468
0.4046
0.40452
0.40444
0.40437
0.40431
0.40426
0.40422
0.40419
0.40414
0.40408
0.404
0.40391
0.40383
0.40374
0.40365
0.40357
0.40348
0.40339
0.40331
0.40322
0.40314
0.40305
0.40297
0.40289
0.4028
0.40272
0.40264
0.40255
0.40247
0.40239
0.40231
0.40223
0.40215
0.40207
0.40199
0.40191
0.40183
0.40175
0.40167
0.40159
0.40151
0.40144
0.40136
0.40129
0.40122
0.40117
0.40112
0.40109
0.40107
0.40104
0.40099
0.40093
0.40084
0.40076
0.40068
0.40059
0.40051
0.40043
0.40035
0.40027
0.40019
0.40011
0.40003
0.39995
0.39987
0.39979
0.39971
0.39963
0.39956
0.39948
0.3994
0.39933
0.39925
0.39918
0.39912
0.39907
0.39904
0.39903
0.39901
0.39897
0.3989
0.39881
0.39872
0.39863
0.39854
0.39845
0.39836
0.39828
0.39819
0.3981
0.39801
0.39793
0.39784
0.39776
0.39767
0.39759
0.39751
0.39742
0.39734
0.39726
0.39718
0.39709
0.39701
0.39693
0.39685
0.39677
0.39669
0.39662
0.39654
0.39646
0.39638
0.39631
0.39623
0.39616
0.39608
0.39601
0.39593
0.39586
0.39579
0.39571
0.39564
0.39557
0.3955
0.39543
0.39536
0.39529
0.39522
0.39515
0.39508
0.39502
0.39495
0.39488
0.39482
0.39475
0.39469
0.39463
0.39456
0.3945
0.39444
0.39438
0.39432
0.39426
0.3942
0.39414
0.39409
0.39403
0.39397
0.39392
0.39386
0.39381
0.39376
0.39371
0.39366
0.39361
0.39356
0.39351
0.39347
0.39342
0.39338
0.39333
0.39329
0.39325
0.39321
0.39317
0.39313
0.3931
0.39306
0.39303
0.39299
0.39296
0.39293
0.3929
0.39288
0.39285
0.39282
0.3928
0.39278
0.39275
0.39273
0.39271
0.3927
0.39268
0.39266
0.39265
0.39264
0.39262
0.39261
0.3926
0.39259
0.39258
0.39257
0.39257
0.39256
0.39256
0.39255
0.39255
0.39254
0.39254
0.39254
0.39254
0.39254
0.39253
0.39253
0.39253
0.39253
0.39253
0.39253
0.39253
0.39253
0.39253
0.39253
0.39253
0.39253
0.39253
0.39253
0.39253
0.39253
0.39253
0.39253
0.39251
0.39239
0.39229
0.3924
0.39253
0.39277
0.46936
0.46902
0.46716
0.46387
0.45897
0.45445
0.45157
0.44931
0.44735
0.44565
0.44416
0.44284
0.44167
0.44063
0.43969
0.43885
0.43808
0.43738
0.43673
0.43614
0.43559
0.43508
0.4346
0.43415
0.43373
0.43333
0.43296
0.4326
0.43226
0.43194
0.43163
0.43133
0.43105
0.43077
0.4305
0.43025
0.43
0.42975
0.42952
0.42929
0.42906
0.42884
0.42863
0.42842
0.42821
0.42801
0.42781
0.42762
0.42742
0.42723
0.42704
0.42686
0.42667
0.42649
0.42631
0.42613
0.42596
0.42578
0.42561
0.42544
0.42526
0.42509
0.42492
0.42476
0.42459
0.42442
0.42426
0.42409
0.42393
0.42376
0.4236
0.42344
0.42327
0.42311
0.42295
0.42279
0.42263
0.42247
0.42231
0.42215
0.42199
0.42183
0.42168
0.42152
0.42136
0.42121
0.4209
0.42052
0.42009
0.41971
0.41917
0.41866
0.4181
0.41729
0.41645
0.41569
0.41486
0.41407
0.41352
0.41292
0.41238
0.41205
0.41174
0.41152
0.41141
0.4113
0.41119
0.41109
0.41098
0.41087
0.41077
0.41066
0.41055
0.41045
0.41035
0.41024
0.41014
0.41003
0.40993
0.40983
0.40973
0.40963
0.40952
0.40942
0.40932
0.40922
0.40912
0.40902
0.40892
0.40882
0.40872
0.40863
0.40853
0.40843
0.40833
0.40823
0.40814
0.40804
0.40794
0.40785
0.40775
0.40765
0.40756
0.40746
0.40737
0.40727
0.40718
0.40709
0.40699
0.4069
0.40681
0.40671
0.40662
0.40653
0.40644
0.40634
0.40625
0.40616
0.40607
0.40598
0.40589
0.4058
0.40571
0.40562
0.40553
0.40544
0.40536
0.40527
0.40518
0.40509
0.40501
0.40492
0.40483
0.40475
0.40467
0.40459
0.40452
0.40446
0.40439
0.40433
0.40428
0.40423
0.40418
0.40413
0.40405
0.40397
0.40388
0.40379
0.40371
0.40362
0.40353
0.40344
0.40336
0.40327
0.40319
0.4031
0.40302
0.40293
0.40285
0.40276
0.40268
0.4026
0.40251
0.40243
0.40235
0.40227
0.40218
0.4021
0.40202
0.40194
0.40186
0.40178
0.4017
0.40162
0.40154
0.40147
0.40139
0.40132
0.40127
0.40121
0.40117
0.40112
0.40109
0.40105
0.401
0.40094
0.40087
0.40078
0.4007
0.40062
0.40053
0.40045
0.40037
0.40029
0.40021
0.40012
0.40004
0.39996
0.39988
0.3998
0.39972
0.39965
0.39957
0.39949
0.39941
0.39933
0.39926
0.3992
0.39914
0.39909
0.39905
0.39901
0.39899
0.39895
0.3989
0.39882
0.39873
0.39864
0.39855
0.39846
0.39837
0.39828
0.39819
0.3981
0.39801
0.39793
0.39784
0.39775
0.39767
0.39758
0.3975
0.39741
0.39733
0.39725
0.39716
0.39708
0.397
0.39692
0.39684
0.39676
0.39668
0.3966
0.39652
0.39644
0.39636
0.39628
0.39621
0.39613
0.39605
0.39598
0.3959
0.39583
0.39576
0.39568
0.39561
0.39554
0.39547
0.39539
0.39532
0.39525
0.39518
0.39511
0.39505
0.39498
0.39491
0.39484
0.39478
0.39471
0.39465
0.39458
0.39452
0.39446
0.39439
0.39433
0.39427
0.39421
0.39415
0.39409
0.39403
0.39398
0.39392
0.39386
0.39381
0.39375
0.3937
0.39365
0.3936
0.39355
0.3935
0.39345
0.3934
0.39335
0.39331
0.39326
0.39322
0.39318
0.39314
0.3931
0.39306
0.39302
0.39298
0.39295
0.39291
0.39288
0.39285
0.39282
0.39279
0.39276
0.39273
0.39271
0.39268
0.39266
0.39264
0.39262
0.3926
0.39258
0.39256
0.39254
0.39253
0.39251
0.3925
0.39249
0.39248
0.39247
0.39246
0.39245
0.39244
0.39244
0.39243
0.39243
0.39242
0.39242
0.39242
0.39241
0.39241
0.39241
0.39241
0.39241
0.3924
0.3924
0.3924
0.3924
0.3924
0.3924
0.3924
0.3924
0.3924
0.3924
0.3924
0.3924
0.3924
0.3924
0.3924
0.3924
0.39238
0.39225
0.39216
0.39227
0.3924
0.39264
0.4621
0.46278
0.46214
0.46051
0.45699
0.45345
0.45106
0.44909
0.44733
0.44574
0.44432
0.44305
0.44191
0.44088
0.43995
0.43909
0.43832
0.4376
0.43695
0.43634
0.43577
0.43525
0.43476
0.43429
0.43386
0.43345
0.43306
0.43269
0.43234
0.432
0.43168
0.43138
0.43108
0.4308
0.43052
0.43025
0.43
0.42975
0.4295
0.42927
0.42904
0.42881
0.42859
0.42838
0.42816
0.42796
0.42775
0.42755
0.42735
0.42716
0.42697
0.42678
0.42659
0.42641
0.42622
0.42604
0.42586
0.42568
0.42551
0.42533
0.42516
0.42499
0.42481
0.42464
0.42448
0.42431
0.42414
0.42397
0.42381
0.42364
0.42348
0.42331
0.42315
0.42299
0.42282
0.42266
0.4225
0.42234
0.42218
0.42202
0.42186
0.4217
0.42154
0.42124
0.42085
0.42043
0.41981
0.41916
0.4186
0.4181
0.41745
0.41688
0.41617
0.41535
0.41456
0.41397
0.41331
0.4127
0.41231
0.41197
0.41171
0.41161
0.41151
0.4114
0.4113
0.41119
0.41108
0.41098
0.41087
0.41076
0.41066
0.41055
0.41045
0.41034
0.41024
0.41014
0.41003
0.40993
0.40983
0.40973
0.40962
0.40952
0.40942
0.40932
0.40922
0.40912
0.40902
0.40892
0.40882
0.40872
0.40862
0.40852
0.40843
0.40833
0.40823
0.40813
0.40804
0.40794
0.40784
0.40775
0.40765
0.40755
0.40746
0.40736
0.40727
0.40717
0.40708
0.40699
0.40689
0.4068
0.40671
0.40661
0.40652
0.40643
0.40634
0.40625
0.40616
0.40606
0.40597
0.40588
0.40579
0.4057
0.40561
0.40553
0.40544
0.40535
0.40526
0.40517
0.40508
0.405
0.40491
0.40483
0.40475
0.40467
0.40461
0.40454
0.40448
0.40442
0.40436
0.4043
0.40424
0.40418
0.40411
0.40404
0.40396
0.40387
0.40378
0.40369
0.4036
0.40352
0.40343
0.40334
0.40326
0.40317
0.40309
0.403
0.40292
0.40283
0.40275
0.40266
0.40258
0.4025
0.40241
0.40233
0.40225
0.40217
0.40209
0.402
0.40192
0.40184
0.40176
0.40168
0.4016
0.40152
0.40145
0.40138
0.40132
0.40127
0.40122
0.40117
0.40114
0.40109
0.40104
0.40098
0.40092
0.40084
0.40076
0.40068
0.40059
0.40051
0.40043
0.40034
0.40026
0.40018
0.4001
0.40002
0.39994
0.39986
0.39978
0.3997
0.39962
0.39954
0.39946
0.39938
0.39931
0.39924
0.39918
0.39913
0.39909
0.39904
0.39901
0.39896
0.39892
0.39885
0.39878
0.3987
0.39861
0.39852
0.39842
0.39834
0.39825
0.39816
0.39807
0.39798
0.39789
0.39781
0.39772
0.39763
0.39755
0.39746
0.39738
0.39729
0.39721
0.39713
0.39705
0.39696
0.39688
0.3968
0.39672
0.39664
0.39656
0.39648
0.3964
0.39632
0.39625
0.39617
0.39609
0.39602
0.39594
0.39587
0.39579
0.39572
0.39564
0.39557
0.3955
0.39543
0.39535
0.39528
0.39521
0.39514
0.39507
0.395
0.39494
0.39487
0.3948
0.39474
0.39467
0.3946
0.39454
0.39448
0.39441
0.39435
0.39429
0.39423
0.39417
0.39411
0.39405
0.39399
0.39393
0.39387
0.39382
0.39376
0.39371
0.39365
0.3936
0.39355
0.3935
0.39345
0.3934
0.39335
0.3933
0.39326
0.39321
0.39317
0.39312
0.39308
0.39304
0.393
0.39296
0.39292
0.39289
0.39285
0.39282
0.39278
0.39275
0.39272
0.39269
0.39266
0.39264
0.39261
0.39258
0.39256
0.39254
0.39252
0.3925
0.39248
0.39246
0.39244
0.39243
0.39241
0.3924
0.39239
0.39238
0.39237
0.39236
0.39235
0.39234
0.39233
0.39233
0.39232
0.39231
0.39231
0.39231
0.3923
0.3923
0.3923
0.39229
0.39229
0.39229
0.39229
0.39229
0.39229
0.39229
0.39229
0.39229
0.39229
0.39229
0.39229
0.39229
0.39229
0.39229
0.39229
0.39229
0.39229
0.39226
0.39214
0.39204
0.39216
0.39229
0.39253
0.45396
0.45521
0.45543
0.45505
0.45285
0.45034
0.44857
0.44702
0.44556
0.4442
0.44295
0.44179
0.44074
0.43977
0.43889
0.43807
0.43732
0.43663
0.43598
0.43539
0.43483
0.43431
0.43382
0.43336
0.43292
0.43251
0.43213
0.43176
0.4314
0.43107
0.43075
0.43044
0.43014
0.42986
0.42958
0.42931
0.42906
0.42881
0.42856
0.42833
0.42809
0.42787
0.42765
0.42743
0.42722
0.42702
0.42681
0.42661
0.42642
0.42623
0.42603
0.42585
0.42566
0.42548
0.4253
0.42512
0.42494
0.42477
0.42459
0.42442
0.42425
0.42408
0.42391
0.42374
0.42358
0.42341
0.42325
0.42308
0.42292
0.42276
0.4226
0.42244
0.42228
0.42212
0.42196
0.4218
0.42164
0.42148
0.42132
0.42117
0.42087
0.42048
0.42006
0.41945
0.41881
0.41825
0.41749
0.4167
0.416
0.41545
0.41482
0.41434
0.41379
0.41315
0.41254
0.41214
0.41178
0.41151
0.41142
0.41132
0.41122
0.41112
0.41102
0.41092
0.41082
0.41071
0.41061
0.41051
0.41041
0.4103
0.4102
0.4101
0.41
0.4099
0.4098
0.4097
0.4096
0.4095
0.4094
0.4093
0.4092
0.4091
0.40901
0.40891
0.40881
0.40871
0.40862
0.40852
0.40842
0.40833
0.40823
0.40814
0.40804
0.40795
0.40785
0.40776
0.40766
0.40757
0.40748
0.40738
0.40729
0.4072
0.40711
0.40701
0.40692
0.40683
0.40674
0.40665
0.40656
0.40647
0.40638
0.40629
0.4062
0.40611
0.40602
0.40593
0.40584
0.40576
0.40567
0.40558
0.40549
0.40541
0.40532
0.40523
0.40515
0.40506
0.40498
0.40489
0.40481
0.40473
0.40465
0.40459
0.40452
0.40446
0.4044
0.40434
0.40428
0.40423
0.40416
0.4041
0.40403
0.40395
0.40387
0.40379
0.40371
0.40362
0.40354
0.40345
0.40337
0.40328
0.4032
0.40311
0.40303
0.40295
0.40286
0.40278
0.4027
0.40262
0.40254
0.40245
0.40237
0.40229
0.40221
0.40213
0.40205
0.40197
0.4019
0.40182
0.40174
0.40166
0.40158
0.40151
0.40143
0.40136
0.4013
0.40125
0.40121
0.40117
0.40113
0.40108
0.40103
0.40098
0.40091
0.40084
0.40077
0.40068
0.4006
0.40052
0.40044
0.40036
0.40028
0.4002
0.40012
0.40004
0.39996
0.39988
0.3998
0.39973
0.39965
0.39957
0.3995
0.39942
0.39934
0.39927
0.39921
0.39916
0.39912
0.39908
0.39905
0.39901
0.39896
0.3989
0.39883
0.39876
0.39867
0.39858
0.3985
0.39841
0.39832
0.39823
0.39815
0.39806
0.39798
0.39789
0.39781
0.39772
0.39764
0.39756
0.39747
0.39739
0.39731
0.39723
0.39715
0.39707
0.39699
0.39691
0.39683
0.39675
0.39668
0.3966
0.39652
0.39645
0.39637
0.39629
0.39622
0.39614
0.39607
0.396
0.39592
0.39585
0.39578
0.39571
0.39564
0.39557
0.3955
0.39543
0.39536
0.39529
0.39522
0.39516
0.39509
0.39502
0.39496
0.39489
0.39483
0.39476
0.3947
0.39464
0.39458
0.39451
0.39445
0.39439
0.39433
0.39427
0.39422
0.39416
0.3941
0.39405
0.39399
0.39394
0.39388
0.39383
0.39378
0.39372
0.39367
0.39362
0.39357
0.39353
0.39348
0.39343
0.39339
0.39334
0.3933
0.39326
0.39322
0.39317
0.39314
0.3931
0.39306
0.39302
0.39299
0.39295
0.39292
0.39289
0.39286
0.39283
0.3928
0.39277
0.39274
0.39272
0.39269
0.39267
0.39265
0.39263
0.39261
0.39259
0.39257
0.39255
0.39254
0.39252
0.39251
0.3925
0.39248
0.39247
0.39246
0.39245
0.39245
0.39244
0.39243
0.39242
0.39242
0.39241
0.39241
0.3924
0.3924
0.3924
0.39239
0.39239
0.39239
0.39239
0.39239
0.39239
0.39239
0.39238
0.39238
0.39238
0.39238
0.39238
0.39238
0.39238
0.39238
0.39238
0.39238
0.39238
0.39236
0.39223
0.39214
0.39225
0.39239
0.39262
0.44703
0.44854
0.44925
0.44967
0.44841
0.44675
0.44555
0.44443
0.4433
0.4422
0.44114
0.44014
0.43921
0.43833
0.43752
0.43676
0.43606
0.4354
0.43479
0.43421
0.43367
0.43316
0.43269
0.43224
0.43181
0.43141
0.43102
0.43066
0.43031
0.42997
0.42966
0.42935
0.42905
0.42877
0.4285
0.42823
0.42798
0.42773
0.42749
0.42725
0.42702
0.4268
0.42658
0.42637
0.42616
0.42595
0.42575
0.42556
0.42536
0.42517
0.42499
0.4248
0.42462
0.42444
0.42426
0.42408
0.42391
0.42374
0.42357
0.4234
0.42323
0.42306
0.4229
0.42274
0.42257
0.42241
0.42225
0.42209
0.42193
0.42177
0.42162
0.42146
0.4213
0.42115
0.42099
0.42084
0.42068
0.42039
0.42
0.41959
0.41898
0.41834
0.41779
0.41703
0.41625
0.41556
0.41479
0.41404
0.41351
0.41304
0.41255
0.41221
0.41183
0.41149
0.41125
0.41115
0.41106
0.41096
0.41087
0.41077
0.41068
0.41058
0.41048
0.41039
0.41029
0.41019
0.41009
0.41
0.4099
0.4098
0.4097
0.40961
0.40951
0.40941
0.40931
0.40922
0.40912
0.40903
0.40893
0.40884
0.40874
0.40865
0.40855
0.40846
0.40836
0.40827
0.40818
0.40808
0.40799
0.4079
0.40781
0.40771
0.40762
0.40753
0.40744
0.40735
0.40726
0.40717
0.40708
0.40699
0.4069
0.40681
0.40672
0.40663
0.40655
0.40646
0.40637
0.40628
0.40619
0.40611
0.40602
0.40593
0.40585
0.40576
0.40568
0.40559
0.40551
0.40542
0.40534
0.40525
0.40517
0.40509
0.405
0.40492
0.40484
0.40475
0.40468
0.4046
0.40453
0.40447
0.4044
0.40435
0.40429
0.40424
0.40418
0.40412
0.40406
0.40399
0.40393
0.40385
0.40377
0.40369
0.40361
0.40352
0.40344
0.40336
0.40327
0.40319
0.40311
0.40303
0.40295
0.40287
0.40279
0.40271
0.40263
0.40255
0.40247
0.40239
0.40231
0.40223
0.40215
0.40208
0.402
0.40192
0.40185
0.40177
0.40169
0.40162
0.40154
0.40147
0.40139
0.40132
0.40126
0.40121
0.40116
0.40113
0.4011
0.40106
0.40101
0.40096
0.4009
0.40083
0.40075
0.40067
0.40059
0.40051
0.40043
0.40036
0.40028
0.4002
0.40012
0.40005
0.39997
0.39989
0.39982
0.39974
0.39967
0.39959
0.39952
0.39944
0.39937
0.3993
0.39923
0.39918
0.39913
0.3991
0.39907
0.39904
0.399
0.39895
0.39889
0.39881
0.39873
0.39864
0.39856
0.39847
0.39839
0.3983
0.39822
0.39814
0.39805
0.39797
0.39789
0.39781
0.39773
0.39765
0.39757
0.39749
0.39741
0.39733
0.39725
0.39717
0.3971
0.39702
0.39694
0.39687
0.39679
0.39672
0.39664
0.39657
0.39649
0.39642
0.39635
0.39628
0.3962
0.39613
0.39606
0.39599
0.39592
0.39585
0.39578
0.39571
0.39565
0.39558
0.39551
0.39545
0.39538
0.39532
0.39525
0.39519
0.39512
0.39506
0.395
0.39493
0.39487
0.39481
0.39475
0.39469
0.39463
0.39457
0.39451
0.39446
0.3944
0.39434
0.39429
0.39423
0.39418
0.39413
0.39407
0.39402
0.39397
0.39392
0.39387
0.39382
0.39377
0.39372
0.39368
0.39363
0.39359
0.39354
0.3935
0.39345
0.39341
0.39337
0.39333
0.39329
0.39326
0.39322
0.39318
0.39315
0.39311
0.39308
0.39305
0.39302
0.39299
0.39296
0.39293
0.3929
0.39288
0.39285
0.39283
0.39281
0.39278
0.39276
0.39274
0.39273
0.39271
0.39269
0.39267
0.39266
0.39265
0.39263
0.39262
0.39261
0.3926
0.39259
0.39258
0.39257
0.39256
0.39256
0.39255
0.39254
0.39254
0.39253
0.39253
0.39253
0.39252
0.39252
0.39252
0.39251
0.39251
0.39251
0.39251
0.39251
0.39251
0.39251
0.39251
0.39251
0.39251
0.3925
0.3925
0.3925
0.3925
0.3925
0.39248
0.39236
0.39226
0.39238
0.39251
0.39274
0.44267
0.44418
0.44504
0.44575
0.44499
0.44383
0.44306
0.44228
0.44144
0.44058
0.43971
0.43886
0.43805
0.43728
0.43654
0.43585
0.43519
0.43457
0.43399
0.43344
0.43292
0.43243
0.43197
0.43153
0.43111
0.43071
0.43033
0.42997
0.42963
0.4293
0.42898
0.42867
0.42838
0.4281
0.42782
0.42756
0.4273
0.42706
0.42681
0.42658
0.42635
0.42613
0.42591
0.4257
0.42549
0.42529
0.42509
0.42489
0.4247
0.42451
0.42432
0.42413
0.42395
0.42377
0.4236
0.42342
0.42325
0.42308
0.42291
0.42274
0.42258
0.42241
0.42225
0.42209
0.42193
0.42177
0.42161
0.42145
0.42129
0.42113
0.42098
0.42082
0.42067
0.42038
0.41999
0.41958
0.4192
0.41868
0.41819
0.41763
0.41688
0.4161
0.41542
0.41465
0.41391
0.41338
0.41277
0.4122
0.41182
0.41149
0.41125
0.41115
0.41106
0.41096
0.41087
0.41078
0.41069
0.41059
0.4105
0.41041
0.41031
0.41022
0.41012
0.41003
0.40993
0.40984
0.40974
0.40965
0.40955
0.40946
0.40936
0.40927
0.40917
0.40908
0.40898
0.40889
0.4088
0.4087
0.40861
0.40852
0.40842
0.40833
0.40824
0.40815
0.40806
0.40796
0.40787
0.40778
0.40769
0.4076
0.40751
0.40742
0.40733
0.40724
0.40716
0.40707
0.40698
0.40689
0.4068
0.40671
0.40663
0.40654
0.40645
0.40637
0.40628
0.40619
0.40611
0.40602
0.40594
0.40585
0.40577
0.40568
0.4056
0.40552
0.40543
0.40535
0.40527
0.40518
0.4051
0.40502
0.40494
0.40486
0.40477
0.40469
0.40462
0.40455
0.40448
0.40443
0.40437
0.40431
0.40425
0.4042
0.40414
0.40409
0.40402
0.40396
0.40388
0.40381
0.40373
0.40365
0.40356
0.40348
0.4034
0.40332
0.40324
0.40316
0.40308
0.403
0.40292
0.40284
0.40276
0.40268
0.4026
0.40252
0.40244
0.40237
0.40229
0.40221
0.40214
0.40206
0.40198
0.40191
0.40183
0.40176
0.40168
0.40161
0.40153
0.40146
0.40139
0.40132
0.40126
0.4012
0.40115
0.40111
0.40107
0.40104
0.40101
0.40096
0.4009
0.40083
0.40076
0.40068
0.4006
0.40052
0.40045
0.40037
0.40029
0.40022
0.40014
0.40006
0.39999
0.39991
0.39984
0.39976
0.39969
0.39962
0.39954
0.39947
0.3994
0.39933
0.39926
0.3992
0.39915
0.39911
0.39908
0.39905
0.39902
0.39898
0.39892
0.39886
0.39878
0.39869
0.39861
0.39852
0.39844
0.39836
0.39828
0.39819
0.39811
0.39803
0.39795
0.39787
0.39779
0.39771
0.39763
0.39755
0.39747
0.3974
0.39732
0.39724
0.39717
0.39709
0.39702
0.39694
0.39687
0.39679
0.39672
0.39665
0.39657
0.3965
0.39643
0.39636
0.39629
0.39622
0.39615
0.39608
0.39601
0.39594
0.39587
0.39581
0.39574
0.39567
0.39561
0.39554
0.39548
0.39541
0.39535
0.39529
0.39522
0.39516
0.3951
0.39504
0.39498
0.39492
0.39486
0.3948
0.39474
0.39468
0.39462
0.39457
0.39451
0.39445
0.3944
0.39434
0.39429
0.39424
0.39418
0.39413
0.39408
0.39403
0.39398
0.39393
0.39388
0.39383
0.39379
0.39374
0.3937
0.39365
0.39361
0.39356
0.39352
0.39348
0.39344
0.3934
0.39336
0.39332
0.39329
0.39325
0.39322
0.39318
0.39315
0.39312
0.39309
0.39306
0.39303
0.393
0.39297
0.39294
0.39292
0.39289
0.39287
0.39285
0.39282
0.3928
0.39278
0.39277
0.39275
0.39273
0.39271
0.3927
0.39268
0.39267
0.39266
0.39265
0.39263
0.39262
0.39261
0.3926
0.3926
0.39259
0.39258
0.39257
0.39257
0.39256
0.39256
0.39255
0.39255
0.39255
0.39254
0.39254
0.39254
0.39254
0.39253
0.39253
0.39253
0.39253
0.39253
0.39253
0.39253
0.39253
0.39253
0.39253
0.39253
0.39253
0.3925
0.39238
0.39229
0.3924
0.39253
0.39276
0.43931
0.44077
0.44167
0.4425
0.44202
0.44119
0.44071
0.44022
0.43962
0.43896
0.43827
0.43758
0.43689
0.43622
0.43557
0.43494
0.43434
0.43377
0.43323
0.43271
0.43221
0.43175
0.4313
0.43087
0.43047
0.43008
0.42971
0.42936
0.42902
0.42869
0.42838
0.42807
0.42778
0.4275
0.42723
0.42697
0.42671
0.42647
0.42623
0.42599
0.42576
0.42554
0.42532
0.42511
0.4249
0.4247
0.4245
0.4243
0.42411
0.42392
0.42374
0.42355
0.42337
0.42319
0.42302
0.42284
0.42267
0.4225
0.42233
0.42217
0.422
0.42184
0.42168
0.42152
0.42136
0.4212
0.42104
0.42089
0.42073
0.42057
0.42028
0.4199
0.41948
0.41888
0.41824
0.41769
0.4172
0.41657
0.41602
0.41534
0.41457
0.41384
0.41331
0.4127
0.41213
0.41176
0.41143
0.41119
0.4111
0.411
0.41091
0.41082
0.41073
0.41063
0.41054
0.41045
0.41036
0.41026
0.41017
0.41008
0.40999
0.40989
0.4098
0.40971
0.40962
0.40952
0.40943
0.40934
0.40924
0.40915
0.40906
0.40897
0.40887
0.40878
0.40869
0.4086
0.40851
0.40841
0.40832
0.40823
0.40814
0.40805
0.40796
0.40787
0.40778
0.40769
0.4076
0.40751
0.40743
0.40734
0.40725
0.40716
0.40707
0.40699
0.4069
0.40681
0.40673
0.40664
0.40655
0.40647
0.40638
0.4063
0.40621
0.40613
0.40604
0.40596
0.40587
0.40579
0.40571
0.40562
0.40554
0.40546
0.40538
0.40529
0.40521
0.40513
0.40505
0.40497
0.40489
0.40481
0.40473
0.40465
0.40458
0.40451
0.40445
0.40439
0.40433
0.40428
0.40423
0.40417
0.40412
0.40406
0.404
0.40393
0.40386
0.40378
0.4037
0.40362
0.40354
0.40345
0.40337
0.40329
0.40321
0.40313
0.40305
0.40297
0.40289
0.40282
0.40274
0.40266
0.40258
0.40251
0.40243
0.40235
0.40228
0.4022
0.40212
0.40205
0.40197
0.4019
0.40182
0.40175
0.40168
0.4016
0.40153
0.40146
0.40139
0.40132
0.40126
0.4012
0.40115
0.40111
0.40107
0.40103
0.401
0.40095
0.4009
0.40084
0.40077
0.40069
0.40061
0.40054
0.40046
0.40038
0.40031
0.40023
0.40016
0.40008
0.40001
0.39993
0.39986
0.39979
0.39971
0.39964
0.39957
0.3995
0.39942
0.39935
0.39928
0.39922
0.39917
0.39912
0.39909
0.39906
0.39903
0.399
0.39895
0.39889
0.39882
0.39874
0.39865
0.39857
0.39849
0.39841
0.39833
0.39824
0.39816
0.39808
0.398
0.39792
0.39784
0.39777
0.39769
0.39761
0.39753
0.39746
0.39738
0.3973
0.39723
0.39715
0.39708
0.39701
0.39693
0.39686
0.39679
0.39671
0.39664
0.39657
0.3965
0.39643
0.39636
0.39629
0.39622
0.39615
0.39609
0.39602
0.39595
0.39589
0.39582
0.39575
0.39569
0.39562
0.39556
0.3955
0.39543
0.39537
0.39531
0.39525
0.39518
0.39512
0.39506
0.395
0.39494
0.39489
0.39483
0.39477
0.39471
0.39466
0.3946
0.39454
0.39449
0.39444
0.39438
0.39433
0.39428
0.39423
0.39417
0.39412
0.39407
0.39402
0.39398
0.39393
0.39388
0.39383
0.39379
0.39374
0.3937
0.39366
0.39361
0.39357
0.39353
0.39349
0.39345
0.39341
0.39338
0.39334
0.3933
0.39327
0.39323
0.3932
0.39317
0.39313
0.3931
0.39307
0.39304
0.39302
0.39299
0.39296
0.39294
0.39291
0.39289
0.39287
0.39284
0.39282
0.3928
0.39278
0.39277
0.39275
0.39273
0.39272
0.3927
0.39269
0.39267
0.39266
0.39265
0.39264
0.39263
0.39262
0.39261
0.3926
0.39259
0.39258
0.39258
0.39257
0.39257
0.39256
0.39256
0.39255
0.39255
0.39254
0.39254
0.39254
0.39254
0.39253
0.39253
0.39253
0.39253
0.39253
0.39253
0.39253
0.39253
0.39253
0.39253
0.39253
0.3925
0.39238
0.39229
0.3924
0.39253
0.39276
0.43651
0.43789
0.43878
0.43966
0.43934
0.43873
0.43846
0.43817
0.43777
0.43729
0.43676
0.43621
0.43564
0.43507
0.4345
0.43395
0.43341
0.43289
0.43239
0.43191
0.43145
0.43101
0.43059
0.43018
0.42979
0.42941
0.42906
0.42871
0.42838
0.42806
0.42775
0.42746
0.42717
0.42689
0.42663
0.42637
0.42611
0.42587
0.42563
0.4254
0.42517
0.42495
0.42473
0.42452
0.42432
0.42411
0.42392
0.42372
0.42353
0.42334
0.42316
0.42297
0.42279
0.42262
0.42244
0.42227
0.4221
0.42193
0.42176
0.4216
0.42144
0.42128
0.42112
0.42096
0.4208
0.42064
0.42048
0.42019
0.4198
0.41939
0.41879
0.41815
0.4176
0.41685
0.41607
0.41539
0.41485
0.41423
0.41377
0.41324
0.41264
0.41207
0.4117
0.41137
0.41113
0.41104
0.41095
0.41086
0.41076
0.41067
0.41058
0.41049
0.4104
0.41031
0.41021
0.41012
0.41003
0.40994
0.40985
0.40976
0.40967
0.40958
0.40949
0.4094
0.4093
0.40921
0.40912
0.40903
0.40894
0.40885
0.40876
0.40867
0.40858
0.40849
0.4084
0.40831
0.40822
0.40813
0.40804
0.40795
0.40786
0.40778
0.40769
0.4076
0.40751
0.40742
0.40734
0.40725
0.40716
0.40708
0.40699
0.4069
0.40682
0.40673
0.40665
0.40656
0.40648
0.40639
0.40631
0.40622
0.40614
0.40606
0.40597
0.40589
0.40581
0.40573
0.40564
0.40556
0.40548
0.4054
0.40532
0.40524
0.40516
0.40508
0.405
0.40492
0.40484
0.40476
0.40468
0.4046
0.40453
0.40447
0.40442
0.40436
0.4043
0.40425
0.4042
0.40415
0.40409
0.40403
0.40397
0.40389
0.40382
0.40375
0.40366
0.40358
0.4035
0.40342
0.40334
0.40326
0.40318
0.40311
0.40303
0.40295
0.40287
0.40279
0.40272
0.40264
0.40256
0.40249
0.40241
0.40234
0.40226
0.40219
0.40211
0.40204
0.40196
0.40189
0.40182
0.40174
0.40167
0.4016
0.40152
0.40145
0.40138
0.40132
0.40125
0.4012
0.40115
0.40111
0.40107
0.40104
0.40099
0.40095
0.4009
0.40084
0.40077
0.4007
0.40062
0.40055
0.40047
0.4004
0.40032
0.40025
0.40017
0.4001
0.40002
0.39995
0.39988
0.39981
0.39973
0.39966
0.39959
0.39952
0.39945
0.39938
0.39931
0.39924
0.39918
0.39913
0.3991
0.39907
0.39904
0.39901
0.39897
0.39892
0.39886
0.39878
0.3987
0.39862
0.39853
0.39845
0.39837
0.39829
0.39821
0.39813
0.39805
0.39798
0.3979
0.39782
0.39774
0.39767
0.39759
0.39751
0.39744
0.39736
0.39729
0.39722
0.39714
0.39707
0.397
0.39692
0.39685
0.39678
0.39671
0.39664
0.39657
0.3965
0.39643
0.39636
0.39629
0.39623
0.39616
0.39609
0.39603
0.39596
0.3959
0.39583
0.39577
0.3957
0.39564
0.39558
0.39551
0.39545
0.39539
0.39533
0.39527
0.39521
0.39515
0.39509
0.39503
0.39497
0.39491
0.39486
0.3948
0.39475
0.39469
0.39463
0.39458
0.39453
0.39447
0.39442
0.39437
0.39432
0.39427
0.39422
0.39417
0.39412
0.39407
0.39402
0.39397
0.39393
0.39388
0.39384
0.39379
0.39375
0.39371
0.39366
0.39362
0.39358
0.39354
0.3935
0.39346
0.39343
0.39339
0.39335
0.39332
0.39328
0.39325
0.39322
0.39319
0.39315
0.39312
0.39309
0.39307
0.39304
0.39301
0.39298
0.39296
0.39293
0.39291
0.39289
0.39287
0.39285
0.39282
0.39281
0.39279
0.39277
0.39275
0.39274
0.39272
0.3927
0.39269
0.39268
0.39266
0.39265
0.39264
0.39263
0.39262
0.39261
0.3926
0.39259
0.39259
0.39258
0.39257
0.39257
0.39256
0.39256
0.39255
0.39255
0.39254
0.39254
0.39254
0.39254
0.39253
0.39253
0.39253
0.39253
0.39253
0.39253
0.39253
0.39253
0.39253
0.39253
0.3925
0.39238
0.39229
0.3924
0.39253
0.39276
0.43411
0.43542
0.43628
0.43715
0.43693
0.43647
0.43634
0.4362
0.43595
0.43561
0.43522
0.43479
0.43433
0.43386
0.43338
0.4329
0.43243
0.43196
0.43151
0.43107
0.43064
0.43023
0.42983
0.42945
0.42908
0.42872
0.42837
0.42804
0.42772
0.42741
0.42711
0.42682
0.42654
0.42627
0.42601
0.42575
0.4255
0.42526
0.42503
0.4248
0.42457
0.42436
0.42414
0.42393
0.42373
0.42353
0.42333
0.42314
0.42295
0.42276
0.42258
0.4224
0.42222
0.42204
0.42187
0.4217
0.42153
0.42136
0.4212
0.42104
0.42088
0.42072
0.42056
0.42026
0.41987
0.41946
0.41908
0.41856
0.41807
0.41752
0.41677
0.41599
0.41531
0.41454
0.41381
0.41328
0.41282
0.41234
0.41201
0.41164
0.41131
0.41107
0.41098
0.41089
0.4108
0.41071
0.41062
0.41053
0.41043
0.41034
0.41025
0.41016
0.41007