/*--------------------------------*- C++ -*----------------------------------*\
| =========                 |                                                 |
| \\      /  F ield         | OpenFOAM: The Open Source CFD Toolbox           |
|  \\    /   O peration     | Version:  5.x                                   |
|   \\  /    A nd           | Web:      www.OpenFOAM.org                      |
|    \\/     M anipulation  |                                                 |
\*---------------------------------------------------------------------------*/
FoamFile
{
    version     2.0;
    format      ascii;
    class       volScalarField;
    location    "25";
    object      gamma;
}
// * * * * * * * * * * * * * * * * * * * * * * * * * * * * * * * * * * * * * //

dimensions      [0 0 0 0 0 0 0];

internalField   nonuniform List<scalar> 
86400
(
0.1026
0.09289
0.08631
0.07941
0.07798
0.07789
0.07848
0.08148
0.09005
0.1018
0.1203
0.1405
0.1659
0.1895
0.2191
0.2407
0.2637
0.2799
0.2986
0.318
0.3441
0.3658
0.3823
0.3971
0.4128
0.4303
0.4443
0.4553
0.4611
0.4662
0.4702
0.4746
0.4785
0.4816
0.484
0.4856
0.4847
0.4821
0.4777
0.475
0.4803
0.4924
0.5045
0.5143
0.5192
0.5178
0.5165
0.5154
0.5147
0.5142
0.5138
0.5134
0.513
0.5127
0.5125
0.5097
0.5054
0.5005
0.4962
0.4934
0.4932
0.493
0.4927
0.491
0.4887
0.486
0.4837
0.4822
0.482
0.4798
0.4765
0.4728
0.4695
0.4675
0.4674
0.4675
0.4675
0.4674
0.4673
0.4672
0.467
0.4668
0.4666
0.4664
0.4661
0.4658
0.4655
0.4651
0.4646
0.4642
0.4637
0.4633
0.4628
0.4622
0.4617
0.4612
0.4612
0.4616
0.4622
0.4632
0.4642
0.4653
0.4666
0.4679
0.4683
0.4693
0.4709
0.4732
0.4751
0.4764
0.4765
0.4761
0.4756
0.4751
0.4746
0.4741
0.4737
0.4733
0.473
0.4726
0.4723
0.4719
0.4715
0.4711
0.4707
0.4703
0.4699
0.4695
0.469
0.4685
0.468
0.4674
0.4667
0.4661
0.4655
0.4648
0.4642
0.4634
0.4624
0.4612
0.4598
0.4578
0.4554
0.4527
0.4505
0.4486
0.4469
0.4447
0.4418
0.4381
0.4338
0.4289
0.4235
0.4178
0.4126
0.4092
0.4082
0.4102
0.6569
0.8288
0.09525
0.08662
0.08092
0.075
0.07571
0.07876
0.08349
0.09127
0.1043
0.119
0.141
0.1626
0.1881
0.2135
0.2482
0.2785
0.3114
0.3405
0.3689
0.3928
0.4189
0.4397
0.456
0.4697
0.4836
0.4977
0.5098
0.5197
0.5263
0.5318
0.5327
0.5312
0.5282
0.5252
0.5235
0.5246
0.5239
0.522
0.5191
0.5167
0.5212
0.5299
0.5411
0.5492
0.5534
0.552
0.5508
0.5497
0.5488
0.5481
0.5475
0.5469
0.5463
0.5458
0.5454
0.5429
0.5393
0.5346
0.531
0.5285
0.5282
0.5278
0.5274
0.5258
0.5238
0.5211
0.5192
0.5178
0.5175
0.5151
0.5116
0.5077
0.5044
0.4999
0.4962
0.4919
0.4881
0.4856
0.4855
0.4852
0.4849
0.4846
0.4843
0.484
0.4837
0.4833
0.4828
0.4823
0.4817
0.4811
0.4806
0.4805
0.4808
0.4812
0.4815
0.4814
0.4815
0.4819
0.4825
0.4833
0.4841
0.4849
0.4856
0.4861
0.486
0.4863
0.4869
0.4879
0.4891
0.4898
0.4897
0.4893
0.4888
0.4882
0.4877
0.4872
0.4868
0.4864
0.4859
0.4855
0.485
0.4846
0.4841
0.4836
0.4831
0.4826
0.482
0.4814
0.4808
0.4801
0.4794
0.4786
0.4778
0.4769
0.4761
0.4753
0.4743
0.4732
0.4718
0.4702
0.4684
0.4662
0.4639
0.4615
0.4591
0.4567
0.4541
0.4506
0.4465
0.4415
0.4356
0.4292
0.4222
0.4151
0.4086
0.4043
0.4032
0.4066
0.5013
0.6163
0.09175
0.08393
0.07899
0.07506
0.07906
0.08647
0.09644
0.1104
0.129
0.1478
0.1716
0.1947
0.2239
0.2585
0.3024
0.3464
0.3898
0.4231
0.4522
0.4761
0.5004
0.5204
0.537
0.5507
0.5639
0.5731
0.5787
0.5815
0.5827
0.5848
0.5848
0.582
0.5772
0.5727
0.5697
0.5703
0.5696
0.568
0.5669
0.5664
0.571
0.5774
0.5857
0.5911
0.5941
0.5928
0.5916
0.5905
0.5895
0.5887
0.5879
0.5872
0.5864
0.5858
0.5852
0.5833
0.5807
0.5777
0.5751
0.5732
0.5728
0.5722
0.5717
0.5704
0.5688
0.567
0.5655
0.5644
0.564
0.5619
0.5587
0.5547
0.5518
0.5449
0.537
0.5274
0.5189
0.5133
0.513
0.5127
0.5123
0.5119
0.5114
0.5109
0.5104
0.5099
0.5098
0.51
0.5103
0.5104
0.5103
0.5103
0.5106
0.5112
0.5116
0.5116
0.5115
0.5117
0.5123
0.5128
0.5132
0.5133
0.5133
0.5132
0.5126
0.5121
0.5118
0.5118
0.512
0.5121
0.5119
0.5113
0.5107
0.5101
0.5095
0.509
0.5085
0.508
0.5074
0.5068
0.5062
0.5056
0.505
0.5044
0.5037
0.503
0.5022
0.5014
0.5006
0.4997
0.4987
0.4977
0.4966
0.4955
0.4944
0.4932
0.4918
0.4901
0.4882
0.4863
0.4841
0.4818
0.4794
0.4768
0.4739
0.4706
0.4667
0.4618
0.4562
0.4496
0.4422
0.4341
0.4257
0.4174
0.4102
0.4055
0.4049
0.4098
0.4209
0.4368
0.0893
0.08352
0.08102
0.08098
0.09037
0.1046
0.1225
0.1458
0.1715
0.1986
0.2272
0.2555
0.2898
0.3345
0.3876
0.4371
0.4821
0.5172
0.5473
0.5717
0.594
0.6136
0.6274
0.6364
0.6434
0.6452
0.6448
0.6444
0.6438
0.6442
0.6439
0.6404
0.6337
0.6285
0.6248
0.6248
0.6241
0.6239
0.6257
0.628
0.6332
0.6394
0.644
0.6467
0.6482
0.647
0.6459
0.6449
0.6439
0.6429
0.642
0.6411
0.6402
0.6394
0.6387
0.6373
0.6355
0.6335
0.6317
0.6303
0.6297
0.6291
0.6284
0.6274
0.6262
0.6249
0.6238
0.623
0.6226
0.6209
0.6185
0.616
0.612
0.6014
0.5882
0.5722
0.5595
0.5524
0.552
0.5515
0.551
0.5509
0.5511
0.5514
0.5515
0.5514
0.5514
0.5517
0.5523
0.5526
0.5525
0.5524
0.5528
0.5535
0.5538
0.5537
0.5533
0.5532
0.5532
0.5533
0.5532
0.5527
0.5519
0.551
0.5496
0.5481
0.5468
0.5458
0.545
0.5445
0.544
0.5432
0.5425
0.5418
0.5412
0.5406
0.54
0.5393
0.5386
0.5378
0.537
0.5362
0.5353
0.5345
0.5335
0.5326
0.5315
0.5304
0.5293
0.5281
0.5267
0.5254
0.524
0.5226
0.521
0.5192
0.5171
0.5147
0.5123
0.5099
0.5074
0.5049
0.5021
0.499
0.4951
0.4905
0.4849
0.4783
0.4708
0.4623
0.4531
0.4434
0.4336
0.4245
0.417
0.4126
0.4133
0.4206
0.4349
0.4545
0.09526
0.09278
0.094
0.09975
0.1167
0.1399
0.1643
0.1967
0.2289
0.2619
0.2947
0.3325
0.3767
0.4285
0.4767
0.5194
0.5559
0.5864
0.6141
0.6387
0.6583
0.6739
0.6824
0.6869
0.6898
0.6897
0.6874
0.6847
0.683
0.6825
0.6824
0.6797
0.6755
0.6714
0.6683
0.6679
0.6678
0.6695
0.6736
0.6789
0.6849
0.6889
0.6908
0.6911
0.6908
0.6898
0.6888
0.6878
0.6869
0.686
0.6851
0.6842
0.6833
0.6825
0.6818
0.6811
0.6804
0.6798
0.6792
0.6786
0.6779
0.6773
0.6766
0.676
0.6754
0.6749
0.6743
0.6739
0.6735
0.6724
0.6692
0.6649
0.6576
0.6441
0.628
0.6118
0.5995
0.5937
0.5939
0.5937
0.593
0.593
0.5934
0.594
0.5944
0.5943
0.5942
0.5946
0.5953
0.5956
0.5955
0.5951
0.5951
0.5952
0.5952
0.5948
0.5941
0.5936
0.5932
0.5926
0.5918
0.5906
0.5892
0.5876
0.5858
0.584
0.5823
0.581
0.5798
0.5789
0.578
0.5772
0.5764
0.5756
0.5748
0.574
0.5732
0.5723
0.5714
0.5704
0.5694
0.5684
0.5673
0.5662
0.565
0.5638
0.5625
0.5611
0.5596
0.5581
0.5565
0.5549
0.5532
0.5513
0.5491
0.5467
0.5442
0.5415
0.5388
0.5361
0.5333
0.5303
0.5268
0.5225
0.5175
0.5116
0.5046
0.4967
0.4879
0.4784
0.4685
0.4585
0.4489
0.4406
0.4345
0.432
0.4346
0.4436
0.4587
0.4782
0.1054
0.1082
0.1154
0.1307
0.1571
0.1864
0.214
0.2493
0.2828
0.3195
0.3602
0.4024
0.4457
0.4938
0.5353
0.5707
0.6012
0.6283
0.6517
0.6734
0.689
0.7002
0.7046
0.707
0.7065
0.7061
0.704
0.7036
0.7026
0.7023
0.7029
0.7017
0.6993
0.6968
0.6948
0.6941
0.6954
0.6993
0.7058
0.7139
0.7204
0.7238
0.7249
0.7246
0.7237
0.7228
0.7219
0.721
0.7201
0.7193
0.7185
0.7176
0.7168
0.716
0.7153
0.7146
0.7139
0.7132
0.7126
0.7119
0.7113
0.7106
0.71
0.7094
0.7088
0.7082
0.7062
0.7032
0.6999
0.697
0.6929
0.6894
0.6822
0.6698
0.6539
0.6414
0.6317
0.628
0.6284
0.6283
0.6275
0.6275
0.6279
0.6287
0.6291
0.629
0.6287
0.6287
0.6289
0.6288
0.6285
0.6278
0.6274
0.627
0.6265
0.6259
0.6249
0.6239
0.6228
0.6215
0.6201
0.6186
0.6168
0.6149
0.6129
0.611
0.6093
0.6079
0.6067
0.6057
0.6047
0.6038
0.6029
0.602
0.601
0.6
0.599
0.598
0.5968
0.5957
0.5945
0.5933
0.592
0.5906
0.5892
0.5877
0.5861
0.5845
0.5828
0.5811
0.5793
0.5774
0.5753
0.5729
0.5704
0.5678
0.5652
0.5623
0.5594
0.5564
0.5532
0.5495
0.5452
0.5401
0.534
0.5271
0.5194
0.511
0.5019
0.4923
0.4828
0.4738
0.4658
0.4595
0.4558
0.4558
0.4605
0.4703
0.4846
0.5016
0.1204
0.1279
0.1411
0.1633
0.1953
0.2262
0.2549
0.2889
0.3217
0.3607
0.3997
0.4412
0.4856
0.5314
0.5703
0.5999
0.6237
0.6447
0.6619
0.6791
0.6916
0.6998
0.7017
0.704
0.7049
0.7063
0.7062
0.7076
0.7081
0.7088
0.711
0.7125
0.7135
0.7139
0.7137
0.7129
0.7157
0.7217
0.7304
0.7382
0.7437
0.7447
0.7443
0.7434
0.7426
0.7418
0.741
0.7402
0.7394
0.7386
0.7378
0.7371
0.7363
0.7356
0.7348
0.7341
0.7334
0.7327
0.7321
0.7314
0.7307
0.73
0.7294
0.7274
0.7246
0.7214
0.7165
0.7114
0.7071
0.7034
0.6985
0.6943
0.686
0.676
0.6654
0.6582
0.6531
0.6523
0.6527
0.6526
0.6518
0.6516
0.6517
0.6519
0.652
0.6517
0.6511
0.6507
0.6503
0.6499
0.6493
0.6483
0.6473
0.6462
0.6452
0.6441
0.643
0.6419
0.6405
0.6389
0.6372
0.6354
0.6333
0.6313
0.6294
0.6276
0.6261
0.6249
0.6237
0.6227
0.6217
0.6207
0.6196
0.6186
0.6174
0.6163
0.6151
0.6139
0.6126
0.6112
0.6099
0.6084
0.6069
0.6053
0.6037
0.602
0.6003
0.5985
0.5966
0.5947
0.5926
0.5905
0.5883
0.5859
0.5834
0.5806
0.5778
0.5748
0.5718
0.5683
0.5646
0.5602
0.5552
0.5494
0.5427
0.5354
0.5276
0.5193
0.5106
0.5019
0.4937
0.4864
0.4806
0.4768
0.4757
0.478
0.484
0.4938
0.5063
0.5198
0.1466
0.1565
0.1728
0.1987
0.2323
0.2634
0.2943
0.3282
0.3589
0.3901
0.4256
0.4668
0.5111
0.5549
0.5932
0.6187
0.6376
0.6505
0.6604
0.6711
0.6797
0.6866
0.6911
0.6954
0.6983
0.7031
0.7075
0.7126
0.7164
0.7192
0.7212
0.7226
0.7235
0.7238
0.7235
0.7225
0.7267
0.7343
0.7439
0.7516
0.7564
0.7559
0.7549
0.7541
0.7533
0.7526
0.7519
0.7511
0.7504
0.7497
0.749
0.7482
0.7475
0.7468
0.7461
0.7454
0.7447
0.7439
0.7432
0.7425
0.7418
0.7398
0.7374
0.7326
0.7271
0.7216
0.7156
0.7091
0.7034
0.6991
0.6942
0.6906
0.685
0.6787
0.6728
0.67
0.6684
0.6688
0.6689
0.6687
0.6678
0.6673
0.667
0.6668
0.6664
0.6658
0.6648
0.6638
0.6628
0.6617
0.6607
0.6597
0.6587
0.6576
0.6565
0.6553
0.654
0.6525
0.6509
0.649
0.6471
0.645
0.6429
0.641
0.6394
0.6379
0.6367
0.6355
0.6344
0.6334
0.6322
0.6311
0.6299
0.6287
0.6274
0.6261
0.6247
0.6233
0.6219
0.6204
0.6188
0.6172
0.6155
0.6138
0.6121
0.6103
0.6084
0.6065
0.6044
0.6024
0.6004
0.5984
0.5963
0.5939
0.5913
0.5884
0.5855
0.5823
0.579
0.575
0.5708
0.5659
0.5604
0.5543
0.5476
0.5405
0.5331
0.5256
0.518
0.5107
0.5042
0.499
0.4954
0.4939
0.4948
0.4983
0.5046
0.5132
0.523
0.5325
0.1816
0.1916
0.2046
0.2288
0.2631
0.2995
0.3369
0.3688
0.3913
0.4155
0.448
0.4888
0.5326
0.5755
0.6132
0.6339
0.6456
0.6496
0.6511
0.654
0.6635
0.6715
0.68
0.6891
0.697
0.7051
0.7114
0.7163
0.72
0.7228
0.7248
0.7262
0.7271
0.7274
0.7271
0.7261
0.7313
0.7397
0.7499
0.7577
0.7623
0.7612
0.7603
0.7596
0.7589
0.7582
0.7576
0.7569
0.7562
0.7555
0.7548
0.7541
0.7533
0.7526
0.7518
0.7511
0.7503
0.7494
0.7478
0.7455
0.7431
0.7388
0.7345
0.7282
0.7211
0.7133
0.7071
0.7007
0.6968
0.6931
0.6893
0.6868
0.684
0.6814
0.6796
0.6792
0.679
0.6789
0.6786
0.6781
0.6772
0.6763
0.6754
0.6744
0.6734
0.6724
0.6714
0.6704
0.6694
0.6684
0.6674
0.6663
0.6652
0.664
0.6627
0.6613
0.6597
0.658
0.656
0.654
0.6519
0.65
0.6481
0.6466
0.6452
0.644
0.6428
0.6417
0.6405
0.6393
0.638
0.6368
0.6354
0.6341
0.6326
0.6312
0.6297
0.6281
0.6265
0.6249
0.6231
0.6214
0.6196
0.6179
0.6161
0.6143
0.6125
0.6107
0.6088
0.607
0.605
0.603
0.601
0.5986
0.5959
0.5929
0.5896
0.5863
0.5826
0.5784
0.5738
0.5687
0.5631
0.5572
0.5509
0.5444
0.5378
0.5314
0.5252
0.5195
0.5148
0.5113
0.5095
0.5095
0.5114
0.5152
0.5207
0.5272
0.5339
0.5396
0.2175
0.223
0.2352
0.2599
0.2971
0.3412
0.3799
0.407
0.4261
0.4474
0.4758
0.5126
0.5525
0.5914
0.6251
0.6417
0.6469
0.6425
0.6362
0.6352
0.6462
0.659
0.6723
0.6846
0.6945
0.7024
0.7087
0.7137
0.7177
0.7207
0.7229
0.7245
0.7255
0.7258
0.7255
0.7245
0.7301
0.7392
0.7501
0.7585
0.7636
0.7625
0.7617
0.7611
0.7605
0.7599
0.7592
0.7586
0.7579
0.7572
0.7564
0.7557
0.7549
0.754
0.7531
0.7514
0.7492
0.7468
0.7432
0.7392
0.7357
0.7302
0.7246
0.7171
0.71
0.7032
0.6982
0.6932
0.6904
0.6878
0.6863
0.686
0.6859
0.6857
0.6853
0.6845
0.6836
0.6828
0.6819
0.681
0.68
0.6791
0.6781
0.6771
0.6761
0.6752
0.6742
0.6732
0.6722
0.6712
0.6702
0.669
0.6678
0.6663
0.6648
0.6631
0.6612
0.6593
0.6572
0.6552
0.6533
0.6517
0.6502
0.6489
0.6477
0.6465
0.6453
0.6441
0.6428
0.6415
0.6401
0.6387
0.6372
0.6357
0.6342
0.6326
0.631
0.6293
0.6275
0.6258
0.624
0.6222
0.6205
0.619
0.6175
0.6159
0.6144
0.6128
0.6109
0.6091
0.6071
0.6052
0.6029
0.6004
0.5974
0.5943
0.5909
0.5874
0.5835
0.5792
0.5746
0.5696
0.5643
0.5588
0.5532
0.5475
0.542
0.5368
0.5319
0.5277
0.5245
0.5224
0.5216
0.5222
0.5243
0.5275
0.5315
0.5358
0.5395
0.5418
0.2476
0.2513
0.2638
0.2924
0.3367
0.3853
0.4202
0.445
0.4642
0.4863
0.512
0.5447
0.5793
0.6107
0.6351
0.6449
0.6432
0.6335
0.6278
0.6282
0.6389
0.6517
0.6639
0.6745
0.6845
0.6928
0.6996
0.7052
0.7096
0.713
0.7155
0.7174
0.7185
0.719
0.72
0.7211
0.7283
0.7382
0.7491
0.7567
0.7612
0.7603
0.7596
0.759
0.7585
0.7579
0.7572
0.7565
0.7558
0.755
0.7541
0.7532
0.7516
0.7494
0.7471
0.7436
0.7398
0.7364
0.7316
0.7265
0.7218
0.7159
0.7103
0.7046
0.6987
0.6934
0.6909
0.6891
0.6889
0.6887
0.6882
0.6874
0.6866
0.6858
0.685
0.6842
0.6833
0.6824
0.6815
0.6806
0.6796
0.6787
0.6777
0.6768
0.6758
0.6749
0.674
0.673
0.6719
0.6708
0.6696
0.6683
0.6668
0.6651
0.6633
0.6614
0.6594
0.6575
0.6556
0.6539
0.6523
0.651
0.6497
0.6485
0.6472
0.646
0.6447
0.6433
0.6419
0.6405
0.639
0.6375
0.6359
0.6343
0.6327
0.631
0.6293
0.6275
0.6258
0.624
0.6225
0.6211
0.6197
0.6185
0.6173
0.6158
0.6144
0.6129
0.611
0.6091
0.6071
0.6047
0.6023
0.5996
0.5965
0.5932
0.5898
0.5862
0.5824
0.5783
0.5739
0.5692
0.5644
0.5595
0.5547
0.5499
0.5454
0.5413
0.5376
0.5346
0.5324
0.531
0.5307
0.5314
0.5329
0.5351
0.5374
0.5395
0.5406
0.54
0.268
0.2747
0.2975
0.3374
0.3892
0.4348
0.4641
0.4884
0.5095
0.5323
0.5538
0.5808
0.6071
0.628
0.6414
0.6437
0.6366
0.6298
0.627
0.6298
0.6393
0.6502
0.6596
0.667
0.6745
0.6803
0.6852
0.6899
0.695
0.699
0.7021
0.7057
0.7093
0.7125
0.7167
0.7203
0.7276
0.7365
0.746
0.7517
0.7552
0.7544
0.7538
0.7532
0.7527
0.752
0.7513
0.7504
0.7496
0.748
0.7461
0.7439
0.7406
0.7371
0.7338
0.7293
0.7244
0.7199
0.7147
0.7096
0.7057
0.7008
0.6962
0.6931
0.6905
0.6887
0.6882
0.6874
0.6866
0.6858
0.685
0.6843
0.6834
0.6826
0.6818
0.681
0.6801
0.6792
0.6782
0.6773
0.6765
0.6756
0.6747
0.6738
0.6729
0.6719
0.671
0.6699
0.6687
0.6674
0.6659
0.6644
0.6627
0.6608
0.659
0.6571
0.6553
0.6535
0.6519
0.6505
0.6491
0.6479
0.6467
0.6455
0.6441
0.6428
0.6414
0.6399
0.6384
0.6369
0.6353
0.6337
0.6321
0.6304
0.6287
0.6269
0.6252
0.6237
0.6223
0.621
0.6199
0.6189
0.6177
0.6167
0.6155
0.6141
0.6126
0.611
0.6089
0.6068
0.6046
0.6019
0.5992
0.5962
0.5931
0.59
0.5869
0.5836
0.5799
0.5761
0.5719
0.5677
0.5635
0.5593
0.5552
0.5513
0.5477
0.5444
0.5416
0.5394
0.5377
0.5368
0.5365
0.5368
0.5375
0.5384
0.5391
0.5391
0.5381
0.5355
0.279
0.2956
0.3328
0.3876
0.4416
0.4835
0.5092
0.5328
0.5554
0.5784
0.5946
0.6118
0.6267
0.6364
0.64
0.6376
0.6323
0.6302
0.6331
0.6379
0.6446
0.6507
0.6574
0.6621
0.6676
0.6716
0.6755
0.6796
0.6852
0.6896
0.693
0.6978
0.7029
0.7079
0.7139
0.7193
0.7263
0.7333
0.7395
0.7429
0.7449
0.7443
0.7437
0.7431
0.7424
0.7411
0.7395
0.7376
0.7359
0.7333
0.7307
0.7277
0.7235
0.7191
0.7148
0.7099
0.7051
0.7014
0.697
0.6928
0.6899
0.6873
0.6854
0.6846
0.6838
0.683
0.6822
0.6815
0.6808
0.68
0.6793
0.6785
0.6777
0.6768
0.676
0.6751
0.6743
0.6734
0.6726
0.6718
0.671
0.6701
0.6693
0.6684
0.6674
0.6664
0.6653
0.664
0.6626
0.6611
0.6595
0.6578
0.6561
0.6543
0.6526
0.651
0.6494
0.6479
0.6465
0.6452
0.644
0.6427
0.6414
0.6401
0.6387
0.6373
0.6357
0.6342
0.6326
0.631
0.6294
0.6277
0.626
0.6243
0.6228
0.6215
0.6202
0.6193
0.6183
0.6173
0.6165
0.6156
0.6145
0.6134
0.6121
0.6104
0.6087
0.6068
0.6046
0.6022
0.5996
0.5968
0.594
0.5912
0.5885
0.5857
0.5828
0.5796
0.5762
0.5726
0.5689
0.5652
0.5616
0.558
0.5546
0.5514
0.5485
0.5458
0.5436
0.5418
0.5404
0.5394
0.5389
0.5386
0.5384
0.538
0.5373
0.5357
0.5331
0.529
0.293
0.3219
0.3734
0.4376
0.4935
0.5305
0.5525
0.5719
0.5903
0.6088
0.6192
0.6284
0.6347
0.6366
0.6334
0.632
0.6304
0.6331
0.6392
0.6443
0.6481
0.6521
0.6564
0.6588
0.662
0.6634
0.6662
0.6699
0.6757
0.6804
0.6841
0.6897
0.696
0.7029
0.7097
0.7155
0.72
0.7243
0.7278
0.729
0.7296
0.7287
0.7275
0.7262
0.7249
0.7229
0.7207
0.7182
0.716
0.7128
0.7099
0.7061
0.7017
0.6973
0.6938
0.6898
0.6859
0.6831
0.6807
0.6789
0.6781
0.6773
0.6766
0.676
0.6753
0.6746
0.6739
0.6732
0.6725
0.6718
0.671
0.6702
0.6694
0.6686
0.6678
0.667
0.6663
0.6656
0.6648
0.664
0.6632
0.6624
0.6616
0.6606
0.6596
0.6583
0.657
0.6556
0.654
0.6524
0.6508
0.6492
0.6477
0.6462
0.6447
0.6433
0.6419
0.6406
0.6393
0.6381
0.6368
0.6355
0.6341
0.6327
0.6312
0.6296
0.6281
0.6265
0.6249
0.6232
0.6215
0.6199
0.6184
0.6172
0.6163
0.6156
0.6148
0.6142
0.6135
0.6127
0.6118
0.6108
0.6094
0.608
0.6065
0.6046
0.6026
0.6003
0.5978
0.5952
0.5926
0.59
0.5876
0.5852
0.5829
0.5803
0.5775
0.5745
0.5713
0.5681
0.5649
0.5617
0.5586
0.5556
0.5527
0.55
0.5475
0.5453
0.5434
0.5417
0.5404
0.5392
0.5382
0.5373
0.5362
0.5349
0.5329
0.5302
0.5265
0.5214
0.3089
0.352
0.4121
0.4848
0.5413
0.5766
0.5924
0.6017
0.6114
0.6218
0.6271
0.6318
0.6325
0.6313
0.6282
0.6284
0.6298
0.6346
0.6405
0.6438
0.6455
0.6466
0.6484
0.649
0.6506
0.6521
0.6546
0.6583
0.6641
0.6691
0.6732
0.679
0.6852
0.6914
0.6977
0.7029
0.7054
0.7071
0.7079
0.7073
0.7068
0.7059
0.7045
0.7029
0.7013
0.6989
0.6966
0.6936
0.6912
0.6881
0.6855
0.6826
0.679
0.6755
0.6731
0.6709
0.6693
0.6687
0.668
0.6674
0.6668
0.6662
0.6656
0.665
0.6645
0.6638
0.6632
0.6625
0.6618
0.6611
0.6604
0.6597
0.659
0.6583
0.6576
0.6569
0.6563
0.6556
0.6549
0.6542
0.6534
0.6525
0.6516
0.6505
0.6492
0.6478
0.6462
0.6448
0.6433
0.642
0.6406
0.6393
0.6379
0.6366
0.6354
0.6342
0.6329
0.6316
0.6304
0.629
0.6277
0.6263
0.6248
0.6233
0.6218
0.6203
0.6187
0.6171
0.6154
0.614
0.6127
0.6116
0.6107
0.61
0.6095
0.6092
0.6088
0.6082
0.6075
0.6064
0.6052
0.6039
0.6023
0.6005
0.5986
0.5964
0.5941
0.5917
0.5893
0.5869
0.5846
0.5824
0.5804
0.5784
0.5762
0.5737
0.5711
0.5683
0.5654
0.5626
0.5598
0.5571
0.5544
0.5518
0.5494
0.5471
0.5449
0.543
0.5412
0.5395
0.538
0.5366
0.5352
0.5336
0.5318
0.5296
0.5268
0.5233
0.5187
0.5131
0.3245
0.3787
0.4451
0.525
0.584
0.6176
0.6259
0.6251
0.622
0.6231
0.6249
0.6277
0.6286
0.6287
0.6267
0.628
0.6292
0.6307
0.6306
0.6294
0.6279
0.627
0.6274
0.6275
0.6281
0.6298
0.6327
0.637
0.6429
0.6481
0.6527
0.6583
0.6643
0.67
0.6747
0.6779
0.6786
0.6788
0.6786
0.6783
0.6782
0.6775
0.6763
0.6745
0.673
0.6709
0.669
0.6669
0.665
0.6628
0.6611
0.6592
0.6575
0.6562
0.6558
0.6554
0.655
0.6546
0.6541
0.6537
0.6533
0.6528
0.6524
0.6519
0.6514
0.6508
0.6502
0.6496
0.649
0.6484
0.6478
0.6472
0.6466
0.646
0.6455
0.6449
0.6443
0.6437
0.643
0.6423
0.6415
0.6405
0.6394
0.638
0.6366
0.6351
0.6338
0.6326
0.6315
0.6304
0.6293
0.6281
0.6269
0.6258
0.6246
0.6234
0.6222
0.6209
0.6196
0.6182
0.6168
0.6154
0.6139
0.6124
0.6109
0.6093
0.6077
0.6063
0.6051
0.6044
0.6038
0.6033
0.6028
0.6025
0.6022
0.602
0.6014
0.6006
0.5995
0.5981
0.5965
0.5948
0.5928
0.5907
0.5886
0.5865
0.5843
0.5821
0.58
0.5779
0.576
0.5742
0.5724
0.5705
0.5684
0.5661
0.5636
0.5611
0.5586
0.5561
0.5537
0.5513
0.549
0.5468
0.5447
0.5426
0.5407
0.5388
0.5371
0.5354
0.5337
0.532
0.5301
0.5281
0.5257
0.5229
0.5195
0.5154
0.5104
0.5046
0.3423
0.4045
0.4752
0.5602
0.6192
0.6498
0.6518
0.6427
0.6283
0.6212
0.6197
0.6227
0.626
0.6294
0.6294
0.6291
0.6265
0.6209
0.613
0.6043
0.5966
0.5909
0.5879
0.5874
0.5895
0.5936
0.599
0.605
0.611
0.6168
0.6221
0.6269
0.6313
0.6352
0.6385
0.6413
0.643
0.6439
0.6442
0.6446
0.6451
0.6453
0.6448
0.644
0.6432
0.6421
0.6413
0.6403
0.6394
0.6389
0.639
0.6391
0.6391
0.639
0.6389
0.6388
0.6386
0.6384
0.6382
0.638
0.6377
0.6374
0.637
0.6366
0.6362
0.6357
0.6353
0.6348
0.6344
0.6339
0.6335
0.6331
0.6326
0.6321
0.6316
0.6311
0.6306
0.63
0.6292
0.6284
0.6275
0.6264
0.6252
0.624
0.6228
0.6216
0.6205
0.6195
0.6187
0.6178
0.6169
0.6158
0.6147
0.6135
0.6124
0.6111
0.6098
0.6085
0.6072
0.6058
0.6044
0.603
0.6015
0.6
0.5985
0.5972
0.5961
0.5955
0.5951
0.5951
0.5949
0.595
0.5946
0.5943
0.5937
0.5931
0.5922
0.5908
0.5893
0.5874
0.5856
0.5837
0.5817
0.5798
0.5777
0.5757
0.5737
0.5719
0.5701
0.5684
0.5668
0.5652
0.5635
0.5617
0.5596
0.5575
0.5553
0.5531
0.5509
0.5487
0.5466
0.5446
0.5426
0.5406
0.5387
0.5368
0.535
0.5332
0.5314
0.5296
0.5278
0.5258
0.5236
0.5212
0.5184
0.5151
0.5114
0.5071
0.5021
0.4964
0.366
0.4308
0.5043
0.5894
0.6457
0.6731
0.6715
0.6567
0.6386
0.6252
0.6211
0.6248
0.6304
0.6358
0.6355
0.6292
0.6189
0.6044
0.5872
0.5701
0.5559
0.5458
0.5398
0.5376
0.5388
0.5425
0.5479
0.5543
0.5611
0.5679
0.5744
0.5806
0.5864
0.5917
0.5965
0.6007
0.6038
0.606
0.6077
0.6092
0.6108
0.6122
0.613
0.6135
0.6139
0.6145
0.6155
0.6164
0.6171
0.6178
0.6184
0.6189
0.6193
0.6197
0.6199
0.6201
0.6202
0.6203
0.6203
0.6202
0.62
0.6199
0.6197
0.6194
0.6192
0.619
0.6187
0.6185
0.6182
0.6179
0.6176
0.6173
0.6169
0.6165
0.616
0.6155
0.6149
0.6143
0.6135
0.6128
0.6119
0.6109
0.61
0.6091
0.6083
0.6074
0.6067
0.6059
0.6052
0.6042
0.6033
0.6022
0.6009
0.5997
0.5985
0.5973
0.596
0.5947
0.5934
0.5921
0.5907
0.5893
0.5879
0.5867
0.5857
0.5852
0.5849
0.5851
0.5852
0.5857
0.5857
0.5856
0.585
0.5844
0.5833
0.5821
0.5806
0.5789
0.5772
0.5754
0.5736
0.5717
0.5699
0.568
0.5661
0.5643
0.5627
0.5612
0.5598
0.5585
0.5571
0.5555
0.5538
0.552
0.5501
0.5481
0.5462
0.5443
0.5424
0.5405
0.5387
0.5369
0.5351
0.5333
0.5316
0.5298
0.5281
0.5263
0.5245
0.5226
0.5206
0.5184
0.5159
0.5132
0.5102
0.507
0.5032
0.4989
0.494
0.4885
0.3905
0.4573
0.534
0.6157
0.6679
0.6905
0.6859
0.6717
0.656
0.6411
0.6348
0.6345
0.6391
0.6427
0.6399
0.6263
0.6069
0.5821
0.5548
0.5295
0.5097
0.4959
0.4877
0.4838
0.4838
0.4867
0.492
0.4988
0.5068
0.5151
0.5233
0.5312
0.5388
0.5459
0.5525
0.5584
0.5633
0.5674
0.5708
0.5739
0.5768
0.5798
0.5825
0.5849
0.5871
0.5889
0.5906
0.592
0.5933
0.5946
0.5957
0.5967
0.5975
0.5983
0.5989
0.5993
0.5997
0.6
0.6003
0.6005
0.6006
0.6007
0.6007
0.6007
0.6007
0.6007
0.6007
0.6006
0.6005
0.6003
0.6001
0.5998
0.5995
0.5991
0.5987
0.5982
0.5976
0.597
0.5964
0.5961
0.5958
0.5956
0.5954
0.595
0.5943
0.5935
0.5926
0.5916
0.5907
0.5896
0.5884
0.5872
0.5859
0.5847
0.5834
0.5822
0.581
0.5798
0.5785
0.5772
0.5759
0.5746
0.5736
0.5733
0.5732
0.5737
0.5742
0.5749
0.5751
0.5754
0.5751
0.5747
0.5737
0.5724
0.5709
0.5693
0.5677
0.566
0.5643
0.5626
0.5609
0.5591
0.5573
0.5557
0.5541
0.5527
0.5515
0.5503
0.5492
0.5479
0.5466
0.545
0.5434
0.5417
0.5399
0.5382
0.5365
0.5349
0.5332
0.5316
0.5299
0.5283
0.5267
0.5251
0.5235
0.5218
0.5201
0.5183
0.5165
0.5145
0.5123
0.51
0.5075
0.5049
0.502
0.4989
0.4952
0.491
0.4862
0.4808
0.4139
0.4822
0.5574
0.6339
0.682
0.6997
0.697
0.6868
0.6761
0.6614
0.6526
0.6478
0.6487
0.6489
0.643
0.621
0.5919
0.5566
0.52
0.4873
0.4626
0.444
0.4326
0.4263
0.4249
0.4272
0.4321
0.4392
0.448
0.4577
0.4677
0.4781
0.4881
0.4976
0.5064
0.5146
0.5219
0.5284
0.5341
0.5392
0.5438
0.548
0.5518
0.5552
0.5583
0.561
0.5634
0.5655
0.5675
0.5693
0.5709
0.5724
0.5736
0.5748
0.5758
0.5767
0.5774
0.578
0.5786
0.5791
0.5795
0.5799
0.5802
0.5805
0.5808
0.581
0.5811
0.5812
0.5812
0.5811
0.581
0.5808
0.5805
0.5802
0.5799
0.5796
0.5791
0.5791
0.5791
0.5798
0.5805
0.5811
0.5812
0.5811
0.5803
0.5793
0.578
0.5764
0.575
0.5736
0.5723
0.5711
0.5699
0.5686
0.5673
0.5661
0.565
0.5638
0.5627
0.5616
0.5608
0.5602
0.5601
0.5606
0.5614
0.5626
0.5634
0.5639
0.5639
0.5636
0.5627
0.5616
0.5602
0.5587
0.5572
0.5557
0.5541
0.5525
0.5509
0.5493
0.5477
0.5461
0.5446
0.5433
0.5421
0.5411
0.5402
0.5392
0.5381
0.5368
0.5354
0.5339
0.5324
0.5309
0.5293
0.5278
0.5264
0.5249
0.5234
0.522
0.5205
0.5191
0.5176
0.5161
0.5146
0.513
0.5113
0.5095
0.5076
0.5056
0.5035
0.5014
0.4991
0.4967
0.494
0.4909
0.4873
0.4831
0.4783
0.4729
0.4391
0.5071
0.5776
0.648
0.6923
0.7085
0.7077
0.7027
0.6957
0.6805
0.6686
0.6606
0.6583
0.6551
0.6448
0.615
0.5773
0.5327
0.4881
0.4483
0.4173
0.3918
0.3743
0.3632
0.3583
0.3586
0.3631
0.371
0.3812
0.3926
0.4047
0.4177
0.4307
0.4436
0.4556
0.4667
0.4767
0.4857
0.4937
0.5008
0.5072
0.5128
0.518
0.5226
0.5268
0.5305
0.5338
0.5367
0.5395
0.542
0.5443
0.5463
0.548
0.5496
0.551
0.5523
0.5535
0.5546
0.5555
0.5564
0.5572
0.5579
0.5584
0.5589
0.5594
0.5598
0.5601
0.5603
0.5604
0.5604
0.5604
0.5604
0.5604
0.5603
0.5602
0.5604
0.5608
0.5618
0.5628
0.5645
0.5657
0.5669
0.5671
0.5668
0.5655
0.564
0.5621
0.56
0.5581
0.5563
0.5549
0.5538
0.5527
0.5516
0.5505
0.5493
0.5482
0.5473
0.5468
0.5464
0.5466
0.5469
0.5476
0.5487
0.55
0.551
0.5516
0.5516
0.5509
0.5499
0.5486
0.5473
0.5459
0.5445
0.5431
0.5416
0.5402
0.5387
0.5372
0.5357
0.5344
0.5332
0.532
0.5311
0.5302
0.5294
0.5286
0.5276
0.5264
0.5251
0.5238
0.5224
0.5211
0.5197
0.5184
0.5171
0.5158
0.5145
0.5132
0.5119
0.5106
0.5093
0.5079
0.5065
0.505
0.5035
0.5018
0.5001
0.4983
0.4965
0.4947
0.4928
0.4908
0.4886
0.486
0.4829
0.4792
0.4749
0.47
0.4645
0.461
0.5293
0.5939
0.6591
0.7001
0.718
0.7192
0.7189
0.7135
0.6977
0.6845
0.6744
0.6692
0.6619
0.646
0.6095
0.5644
0.5123
0.4605
0.4128
0.3713
0.3343
0.3088
0.2927
0.2844
0.2825
0.2854
0.2927
0.3027
0.3147
0.3283
0.344
0.3607
0.3779
0.3945
0.4099
0.4239
0.4364
0.4476
0.4575
0.4662
0.474
0.4809
0.4871
0.4926
0.4976
0.5019
0.5059
0.5095
0.5128
0.5157
0.5183
0.5206
0.5228
0.5247
0.5266
0.5283
0.5298
0.5311
0.5324
0.5335
0.5345
0.5353
0.5361
0.5368
0.5373
0.5378
0.5383
0.5386
0.5389
0.5392
0.5394
0.5395
0.5401
0.5408
0.5422
0.5436
0.5456
0.5473
0.5495
0.5507
0.5516
0.5514
0.5506
0.549
0.547
0.5448
0.5425
0.5402
0.538
0.5363
0.535
0.5342
0.5336
0.5331
0.5323
0.5318
0.5315
0.5319
0.5326
0.5337
0.5345
0.5358
0.5368
0.5378
0.5382
0.5382
0.5374
0.5363
0.5351
0.5339
0.5327
0.5314
0.5301
0.5287
0.5274
0.526
0.5247
0.5235
0.5224
0.5215
0.5206
0.5198
0.5191
0.5184
0.5176
0.5167
0.5156
0.5145
0.5132
0.512
0.5108
0.5096
0.5084
0.5073
0.5061
0.505
0.5038
0.5027
0.5015
0.5003
0.4991
0.4978
0.4965
0.495
0.4936
0.492
0.4904
0.4888
0.4874
0.4859
0.4845
0.4827
0.4805
0.4778
0.4745
0.4706
0.4662
0.4611
0.455
0.4797
0.5453
0.6035
0.6666
0.707
0.7267
0.7312
0.7339
0.7281
0.7122
0.6983
0.6867
0.6791
0.6683
0.6471
0.6054
0.5544
0.4965
0.4362
0.3782
0.3226
0.2791
0.2495
0.2303
0.2195
0.2157
0.2173
0.2237
0.2333
0.2446
0.2567
0.2706
0.2858
0.303
0.322
0.3419
0.3612
0.3786
0.3941
0.4077
0.4198
0.4303
0.4396
0.4479
0.4551
0.4616
0.4673
0.4725
0.4773
0.4816
0.4855
0.4889
0.492
0.4948
0.4974
0.4998
0.502
0.504
0.5057
0.5074
0.5088
0.5102
0.5114
0.5125
0.5135
0.5144
0.5151
0.5159
0.5166
0.5171
0.5177
0.518
0.5188
0.5204
0.5224
0.525
0.5274
0.53
0.5317
0.5333
0.534
0.5343
0.5335
0.5324
0.5306
0.5286
0.5264
0.524
0.5216
0.5189
0.5166
0.5149
0.5145
0.5146
0.5154
0.516
0.5167
0.5173
0.5186
0.5198
0.5215
0.5225
0.5236
0.524
0.5242
0.5239
0.5232
0.5222
0.5212
0.5201
0.519
0.5179
0.5167
0.5155
0.5143
0.5131
0.512
0.5111
0.5103
0.5096
0.509
0.5085
0.5078
0.5071
0.5063
0.5055
0.5045
0.5034
0.5023
0.5013
0.5002
0.4991
0.4981
0.4971
0.4961
0.495
0.494
0.493
0.4919
0.4909
0.4898
0.4886
0.4874
0.4861
0.4849
0.4836
0.4822
0.4808
0.4796
0.4785
0.4774
0.4762
0.4744
0.472
0.469
0.4654
0.4613
0.4567
0.4511
0.444
0.4937
0.5548
0.6092
0.6709
0.7114
0.7329
0.7414
0.746
0.7403
0.7246
0.7104
0.6979
0.6883
0.6744
0.6486
0.603
0.5471
0.4834
0.4141
0.3433
0.2782
0.2307
0.1983
0.1774
0.1655
0.1607
0.1617
0.1673
0.1761
0.1869
0.1987
0.211
0.2243
0.2393
0.2562
0.2747
0.294
0.3133
0.3322
0.3503
0.3665
0.3808
0.3933
0.4042
0.4139
0.4224
0.43
0.4368
0.4429
0.4484
0.4534
0.4578
0.4617
0.4653
0.4687
0.4718
0.4747
0.4773
0.4796
0.4817
0.4835
0.4853
0.487
0.4885
0.4899
0.4911
0.4922
0.4933
0.4943
0.4952
0.4963
0.4976
0.4995
0.5024
0.5055
0.5088
0.5114
0.5134
0.5145
0.5151
0.5149
0.5142
0.513
0.5117
0.5101
0.5084
0.5065
0.5044
0.5022
0.4995
0.4967
0.4944
0.4939
0.4953
0.498
0.5006
0.5031
0.5045
0.5062
0.5075
0.5089
0.5096
0.5101
0.5099
0.5094
0.5087
0.5079
0.507
0.5061
0.5051
0.5042
0.5031
0.5022
0.5013
0.5004
0.4996
0.4989
0.4983
0.4978
0.4974
0.4969
0.4965
0.4958
0.4951
0.4943
0.4933
0.4923
0.4914
0.4904
0.4895
0.4885
0.4876
0.4867
0.4858
0.4849
0.484
0.4831
0.4821
0.4812
0.4801
0.4792
0.4781
0.4771
0.476
0.4748
0.4736
0.4725
0.4715
0.4707
0.4699
0.469
0.4676
0.4655
0.4628
0.4594
0.4556
0.4509
0.4454
0.4386
0.4303
0.5051
0.5606
0.6139
0.674
0.7165
0.7395
0.7514
0.756
0.7505
0.7354
0.7213
0.7081
0.6969
0.6806
0.6509
0.6023
0.5422
0.4729
0.394
0.3113
0.2406
0.1908
0.1573
0.136
0.1238
0.1186
0.119
0.1238
0.1318
0.142
0.1533
0.165
0.1769
0.1899
0.2043
0.2205
0.2381
0.2565
0.2747
0.2926
0.3099
0.3263
0.3419
0.3562
0.3689
0.38
0.3898
0.3986
0.4064
0.4134
0.4197
0.4253
0.4303
0.4348
0.4389
0.4428
0.4464
0.4497
0.4526
0.4552
0.4576
0.4598
0.462
0.4641
0.4659
0.4675
0.4689
0.4703
0.4716
0.4731
0.4756
0.4782
0.4815
0.4853
0.4888
0.4916
0.4938
0.4947
0.4947
0.4944
0.4935
0.4925
0.4913
0.4902
0.489
0.4877
0.4862
0.4846
0.4826
0.48
0.4769
0.4745
0.4749
0.4777
0.4826
0.487
0.4906
0.4921
0.4935
0.4944
0.4952
0.4952
0.4951
0.4945
0.494
0.4933
0.4926
0.4919
0.4911
0.4903
0.4896
0.4889
0.4883
0.4878
0.4873
0.4869
0.4864
0.4861
0.4858
0.4855
0.4851
0.4845
0.4838
0.483
0.4822
0.4813
0.4805
0.4796
0.4788
0.478
0.4772
0.4763
0.4755
0.4747
0.4739
0.4731
0.4722
0.4713
0.4705
0.4696
0.4688
0.468
0.4671
0.4661
0.465
0.464
0.4631
0.4625
0.462
0.4614
0.4602
0.4584
0.4559
0.4528
0.4493
0.4449
0.4389
0.4321
0.424
0.4149
0.5142
0.5645
0.617
0.6769
0.7202
0.7445
0.7595
0.7641
0.7591
0.7447
0.7309
0.7174
0.705
0.6867
0.6539
0.6025
0.5385
0.4637
0.3754
0.2845
0.2102
0.1594
0.1262
0.1056
0.0941
0.0892
0.08924
0.09308
0.0999
0.109
0.1194
0.1306
0.1419
0.1533
0.1655
0.1792
0.1943
0.2107
0.2277
0.2447
0.2613
0.2773
0.2928
0.3075
0.3213
0.3343
0.3465
0.3575
0.3673
0.3761
0.3838
0.3908
0.397
0.4026
0.4078
0.4126
0.4171
0.4212
0.4248
0.428
0.4309
0.4337
0.4363
0.4388
0.441
0.443
0.4448
0.447
0.4494
0.4524
0.4563
0.4602
0.4643
0.4681
0.4709
0.4725
0.4735
0.4734
0.4727
0.472
0.4712
0.4704
0.4695
0.4685
0.4675
0.4664
0.4653
0.464
0.4624
0.4611
0.4594
0.4584
0.46
0.4639
0.4692
0.4745
0.4779
0.4791
0.4798
0.48
0.4801
0.4799
0.4796
0.4792
0.4787
0.4783
0.4777
0.4772
0.4768
0.4763
0.476
0.4757
0.4755
0.4753
0.4752
0.475
0.4748
0.4745
0.4742
0.4738
0.4733
0.4727
0.4719
0.4712
0.4705
0.4697
0.469
0.4683
0.4676
0.4669
0.4661
0.4654
0.4647
0.4639
0.4632
0.4624
0.4617
0.4609
0.4602
0.4596
0.4589
0.4582
0.4574
0.4565
0.4557
0.4549
0.4544
0.454
0.4535
0.4526
0.451
0.4487
0.4458
0.442
0.4375
0.4317
0.4243
0.4163
0.4077
0.3993
0.522
0.5689
0.6204
0.68
0.7236
0.7489
0.7659
0.7708
0.7663
0.7528
0.7394
0.7258
0.7126
0.6927
0.6576
0.604
0.537
0.4574
0.3606
0.2636
0.1869
0.1359
0.1038
0.08455
0.07407
0.06965
0.06955
0.07267
0.07832
0.08609
0.09541
0.1057
0.1163
0.1267
0.1371
0.1485
0.1611
0.1752
0.1905
0.206
0.2215
0.2367
0.2514
0.2656
0.2792
0.2922
0.3044
0.3159
0.3267
0.3368
0.3462
0.3548
0.3624
0.3693
0.3756
0.3815
0.3868
0.3916
0.3959
0.3998
0.4033
0.4065