/*--------------------------------*- C++ -*----------------------------------*\
| =========                 |                                                 |
| \\      /  F ield         | OpenFOAM: The Open Source CFD Toolbox           |
|  \\    /   O peration     | Version:  5.x                                   |
|   \\  /    A nd           | Web:      www.OpenFOAM.org                      |
|    \\/     M anipulation  |                                                 |
\*---------------------------------------------------------------------------*/
FoamFile
{
    version     2.0;
    format      ascii;
    class       volScalarField;
    location    "100";
    object      gamma;
}
// * * * * * * * * * * * * * * * * * * * * * * * * * * * * * * * * * * * * * //

dimensions      [0 0 0 0 0 0 0];

internalField   nonuniform List<scalar> 
86400
(
1.88e-05
2.488e-05
3.947e-05
7.956e-05
0.0001714
0.0003059
0.0004121
0.0005592
0.0007875
0.0009769
0.001282
0.001574
0.002186
0.00307
0.004667
0.005885
0.007247
0.005716
0.005005
0.004909
0.005632
0.006434
0.008201
0.007733
0.007505
0.009443
0.01025
0.01083
0.01031
0.009988
0.009611
0.01017
0.01082
0.01138
0.01207
0.01359
0.01343
0.0123
0.009803
0.008618
0.007558
0.007673
0.007216
0.006395
0.006315
0.006955
0.008417
0.009477
0.01022
0.009792
0.009822
0.01007
0.01029
0.01031
0.01022
0.01069
0.01141
0.01182
0.01187
0.01157
0.01053
0.01039
0.009814
0.009979
0.01133
0.01348
0.01551
0.01651
0.01461
0.01343
0.01415
0.01572
0.01784
0.01648
0.01502
0.01336
0.01177
0.01192
0.01377
0.01586
0.01973
0.02215
0.0221
0.02126
0.02091
0.0194
0.01954
0.01898
0.01941
0.01993
0.01911
0.02104
0.02395
0.03006
0.03341
0.03519
0.03166
0.03015
0.02923
0.02821
0.02705
0.02766
0.02506
0.02123
0.01502
0.0139
0.01534
0.02232
0.02691
0.03009
0.02722
0.02576
0.02311
0.01915
0.0141
0.0114
0.01039
0.01013
0.009482
0.008643
0.008019
0.007531
0.007697
0.007652
0.007557
0.007542
0.007431
0.007215
0.006629
0.00562
0.004356
0.003885
0.003775
0.004012
0.004397
0.00506
0.005681
0.006527
0.004434
0.00215
0.001185
0.001271
0.001865
0.002951
0.002822
0.001996
0.001605
0.001898
0.002492
0.002959
0.003258
0.003685
0.004902
0.005372
0.005891
0.006698
0.006605
0.006951
0.0927
0.9547
2.508e-05
3.022e-05
4.487e-05
7.673e-05
0.0001459
0.0002351
0.0002975
0.0003822
0.0004846
0.0004702
0.0005931
0.0008452
0.001498
0.002872
0.004883
0.005707
0.005777
0.005192
0.005748
0.007521
0.01087
0.01547
0.01974
0.01919
0.01781
0.01725
0.01492
0.01228
0.01012
0.008648
0.008166
0.009527
0.01159
0.01403
0.01646
0.01902
0.01949
0.01914
0.01707
0.01562
0.01361
0.01308
0.01243
0.0115
0.01124
0.01213
0.01322
0.01427
0.01525
0.0154
0.01623
0.01739
0.01849
0.01919
0.01898
0.01747
0.01569
0.01416
0.01291
0.01235
0.01183
0.01202
0.01145
0.0118
0.01348
0.0174
0.02025
0.02186
0.02003
0.01928
0.02051
0.0211
0.02002
0.01672
0.01432
0.01391
0.01624
0.02026
0.02432
0.02657
0.03018
0.03274
0.03557
0.03714
0.03827
0.03679
0.03741
0.03651
0.03829
0.04098
0.04187
0.04561
0.04846
0.04986
0.04854
0.04626
0.04115
0.0368
0.03231
0.03043
0.03027
0.0339
0.03702
0.03262
0.02185
0.01809
0.01853
0.02314
0.03013
0.03516
0.03181
0.03164
0.0328
0.03288
0.03047
0.02808
0.02671
0.02668
0.02536
0.02256
0.02079
0.01918
0.01903
0.019
0.01885
0.01886
0.01846
0.0177
0.01565
0.01283
0.009607
0.008487
0.008209
0.009639
0.01129
0.01279
0.01354
0.01411
0.01031
0.006092
0.0048
0.004995
0.005754
0.00751
0.008067
0.006866
0.006522
0.00799
0.01057
0.01107
0.01017
0.009631
0.01092
0.01349
0.0212
0.03848
0.0674
0.1607
0.4573
0.9187
4.192e-05
4.776e-05
6.115e-05
8.356e-05
0.0001358
0.0001899
0.0002206
0.0002711
0.0003088
0.0003014
0.0004016
0.0006897
0.001367
0.002885
0.00481
0.005855
0.006444
0.00723
0.008331
0.01194
0.01607
0.02295
0.02838
0.02709
0.02682
0.02888
0.02662
0.02217
0.0178
0.01404
0.01338
0.0168
0.02065
0.02337
0.02389
0.02365
0.02227
0.02182
0.02
0.01846
0.01621
0.01572
0.015
0.01519
0.01613
0.01833
0.02
0.02175
0.0237
0.02185
0.01913
0.01636
0.0143
0.01339
0.01396
0.01321
0.01253
0.01172
0.01145
0.01149
0.01194
0.01276
0.01284
0.01444
0.01602
0.01823
0.02014
0.02144
0.02029
0.01985
0.02026
0.01838
0.01619
0.01505
0.01561
0.0208
0.02998
0.03949
0.04536
0.04851
0.05163
0.05435
0.05861
0.06233
0.06738
0.06612
0.06553
0.0622
0.05429
0.04547
0.03628
0.03008
0.02921
0.03299
0.03602
0.03823
0.0382
0.03287
0.02842
0.02732
0.02776
0.03099
0.03457
0.02953
0.02062
0.01839
0.02105
0.02807
0.0397
0.04423
0.04209
0.04713
0.05351
0.05671
0.05346
0.05028
0.04571
0.04416
0.0403
0.03526
0.03087
0.02933
0.02895
0.02903
0.02889
0.02898
0.02842
0.02728
0.02383
0.01981
0.01552
0.01387
0.01328
0.01541
0.01918
0.02297
0.0258
0.02792
0.02397
0.01865
0.01706
0.01754
0.01941
0.02276
0.02442
0.0215
0.01968
0.0211
0.02508
0.02472
0.02421
0.02307
0.02905
0.04239
0.08175
0.2007
0.4242
0.7283
0.8612
0.9679
8.624e-05
8.862e-05
9.391e-05
9.998e-05
0.0001255
0.0001367
0.0001363
0.0001551
0.000177
0.0001959
0.0002985
0.0003761
0.0005374
0.0009764
0.001785
0.00243
0.003567
0.00366
0.002842
0.003065
0.0036
0.004439
0.006389
0.007673
0.009203
0.01262
0.01519
0.01519
0.01451
0.01312
0.01312
0.01821
0.02446
0.02918
0.02886
0.02661
0.024
0.02429
0.02358
0.02319
0.02212
0.02358
0.02632
0.03082
0.03011
0.02709
0.02163
0.01786
0.01662
0.01468
0.01174
0.009816
0.009185
0.008703
0.009323
0.008515
0.007457
0.007163
0.008468
0.01026
0.01226
0.01438
0.0157
0.01748
0.01868
0.01967
0.01966
0.01943
0.01803
0.02046
0.02375
0.02225
0.02153
0.02273
0.02318
0.03364
0.04923
0.05999
0.05991
0.06273
0.0587
0.05547
0.05497
0.05311
0.0516
0.05073
0.04872
0.04593
0.04181
0.03933
0.03644
0.0324
0.03286
0.03601
0.0377
0.03855
0.04
0.03343
0.02895
0.02827
0.02984
0.03425
0.04066
0.03649
0.02595
0.01975
0.01891
0.02326
0.02962
0.03251
0.03116
0.03327
0.03462
0.04364
0.05004
0.0596
0.06395
0.07076
0.06479
0.05804
0.04943
0.04848
0.04781
0.04818
0.04819
0.04854
0.04792
0.04729
0.04372
0.03905
0.03287
0.03087
0.03108
0.03353
0.03712
0.03866
0.03823
0.03616
0.03801
0.03957
0.04325
0.04427
0.04592
0.04809
0.05387
0.0561
0.05842
0.06305
0.0755
0.07495
0.07959
0.08345
0.1108
0.184
0.3021
0.541
0.7343
0.9206
0.9815
0.9979
0.000214
0.0001874
0.0001656
0.0001451
0.0001326
0.0001183
9.883e-05
0.0001064
0.0001317
0.0001556
0.0002412
0.0002056
0.0001356
0.000182
0.0004191
0.0008862
0.002613
0.002229
0.00116
0.0008146
0.0009525
0.001198
0.001933
0.002037
0.002693
0.005082
0.01062
0.01825
0.02497
0.02008
0.01453
0.01435
0.01411
0.01403
0.01383
0.01255
0.01056
0.01228
0.01594
0.02102
0.02058
0.01696
0.01182
0.009674
0.007419
0.006025
0.005217
0.005566
0.007262
0.008816
0.007976
0.006198
0.006616
0.007246
0.008228
0.00725
0.005829
0.005947
0.007992
0.0118
0.01677
0.0221
0.02713
0.03002
0.02798
0.02238
0.01925
0.01625
0.0133
0.01333
0.01531
0.01459
0.01763
0.0238
0.02824
0.03516
0.04473
0.04559
0.04299
0.04814
0.04493
0.04075
0.03951
0.03899
0.03985
0.04403
0.04505
0.04243
0.03941
0.03848
0.03456
0.03277
0.0359
0.04013
0.04698
0.04843
0.0496
0.04127
0.0373
0.03362
0.02754
0.02395
0.02656
0.02692
0.02539
0.02503
0.02511
0.02828
0.03087
0.02998
0.0251
0.0238
0.02241
0.0303
0.03254
0.0361
0.03475
0.03645
0.03045
0.03004
0.02773
0.02862
0.02826
0.02848
0.02859
0.02887
0.02886
0.03017
0.03108
0.03176
0.03131
0.03093
0.03062
0.0297
0.03006
0.0294
0.02966
0.03103
0.03629
0.04147
0.04918
0.05464
0.05947
0.06684
0.0801
0.08711
0.09153
0.09318
0.1126
0.1256
0.17
0.2533
0.4249
0.5455
0.6057
0.7237
0.8634
0.9711
0.9956
0.9996
0.0004307
0.0003374
0.0002726
0.0002155
0.0001519
0.0001123
9.499e-05
0.0001019
0.0001411
0.0001938
0.0003123
0.000171
6.329e-05
4.948e-05
0.0001712
0.000415
0.001575
0.001343
0.0006326
0.0003785
0.0005605
0.0007488
0.001219
0.0008979
0.0008617
0.001203
0.002142
0.004854
0.009598
0.008823
0.005937
0.004753
0.004153
0.004083
0.005019
0.005166
0.003724
0.003593
0.004308
0.004219
0.002792
0.001823
0.0008358
0.0004697
0.0003081
0.0001799
0.0001025
0.0001179
0.0002142
0.0004034
0.0005458
0.0007014
0.001096
0.002188
0.003324
0.002992
0.001969
0.001812
0.002594
0.005197
0.009529
0.01436
0.01659
0.01861
0.01783
0.01402
0.01479
0.01376
0.01139
0.01123
0.01413
0.01414
0.01907
0.02585
0.02732
0.02785
0.02926
0.03051
0.03487
0.04771
0.05411
0.05557
0.05328
0.05364
0.05607
0.06462
0.07094
0.07049
0.0718
0.07659
0.0841
0.07936
0.08167
0.08119
0.07851
0.07653
0.07286
0.06427
0.06549
0.06208
0.05016
0.03897
0.03602
0.03421
0.03498
0.03371
0.02635
0.02645
0.02582
0.0232
0.01552
0.01164
0.008769
0.01167
0.01386
0.01683
0.01658
0.01596
0.01349
0.01366
0.01267
0.01294
0.0128
0.01285
0.01291
0.01305
0.01336
0.01496
0.01713
0.01987
0.02205
0.02403
0.02607
0.02656
0.02866
0.0282
0.031
0.03451
0.042
0.04769
0.05611
0.06292
0.0699
0.08009
0.09912
0.1179
0.1424
0.1757
0.2438
0.3545
0.5304
0.623
0.7302
0.7778
0.8201
0.8897
0.9562
0.9914
0.999
0.9999
0.0007291
0.0004949
0.0003552
0.0002381
0.0001755
0.0001441
0.0001487
0.0001788
0.0002862
0.0003779
0.0004717
0.0002091
4.589e-05
3.011e-05
8.97e-05
0.0003152
0.001888
0.003089
0.001726
0.001181
0.002032
0.00234
0.00312
0.001698
0.001091
0.001115
0.001649
0.003017
0.006321
0.006293
0.004506
0.002712
0.002206
0.002379
0.003278
0.00349
0.002081
0.001586
0.001868
0.001509
0.0006323
0.0002321
5.231e-05
1.706e-05
9.598e-06
3.655e-06
1.951e-06
2.992e-06
9.892e-06
3.176e-05
6.854e-05
7.645e-05
8.443e-05
0.0001255
0.0001342
0.000158
0.0002021
0.0003785
0.0009901
0.002835
0.005517
0.009451
0.01242
0.01729
0.01866
0.01354
0.0144
0.01335
0.01185
0.01098
0.01487
0.01508
0.02458
0.03601
0.04092
0.04027
0.04165
0.04461
0.05183
0.07254
0.09239
0.1091
0.1215
0.1328
0.1395
0.1426
0.1399
0.1273
0.1355
0.158
0.1641
0.1539
0.147
0.1413
0.1393
0.1304
0.1077
0.08625
0.08454
0.07987
0.07156
0.05485
0.04974
0.0545
0.06619
0.06612
0.05282
0.0477
0.04053
0.03014
0.01961
0.01232
0.008335
0.009977
0.01208
0.01272
0.01132
0.009715
0.008074
0.008355
0.008081
0.00826
0.008352
0.008455
0.008623
0.008848
0.00923
0.01061
0.01291
0.01624
0.01954
0.02287
0.0262
0.02746
0.03123
0.03775
0.04747
0.05929
0.07867
0.09346
0.1116
0.1325
0.1575
0.1913
0.2588
0.3629
0.4861
0.5791
0.6651
0.7403
0.8174
0.862
0.9185
0.9426
0.9637
0.98
0.9942
0.9984
0.9997
0.9999
0.001391
0.0007498
0.000452
0.0002846
0.0002253
0.0002075
0.0002855
0.0004011
0.0004871
0.0003611
0.000338
0.0001345
3.082e-05
3.082e-05
0.0001134
0.0005049
0.003393
0.008283
0.007193
0.007975
0.01079
0.01124
0.01241
0.006939
0.003878
0.002057
0.001441
0.00166
0.002874
0.003382
0.003103
0.00258
0.002229
0.002758
0.004212
0.004997
0.003068
0.002346
0.002344
0.0009344
0.0002099
3.55e-05
5.697e-06
1.59e-06
1.42e-06
6.094e-07
3.359e-07
4.218e-07
7.307e-07
2.111e-06
5.248e-06
6.128e-06
8.206e-06
1.414e-05
1.457e-05
1.632e-05
2.986e-05
9.25e-05
0.0003726
0.001593
0.003806
0.007291
0.01113
0.01952
0.02244
0.01738
0.01707
0.01601
0.0151
0.01642
0.02324
0.02634
0.03942
0.05683
0.06891
0.07367
0.07714
0.09406
0.1154
0.151
0.1724
0.1891
0.2101
0.2417
0.2723
0.2984
0.2875
0.247
0.2276
0.2447
0.2508
0.2535
0.2193
0.2295
0.2576
0.2733
0.2561
0.217
0.185
0.1738
0.1804
0.1673
0.153
0.131
0.1206
0.1004
0.07849
0.07041
0.063
0.04886
0.03292
0.01719
0.0121
0.01392
0.01734
0.01758
0.01691
0.01323
0.01105
0.01159
0.01176
0.0119
0.01225
0.0128
0.01351
0.01439
0.01569
0.01868
0.02341
0.02989
0.03706
0.04451
0.0521
0.05776
0.06906
0.08863
0.1186
0.1554
0.2093
0.269
0.3637
0.4648
0.5458
0.5994
0.6638
0.7364
0.8109
0.864
0.9069
0.9343
0.9596
0.9733
0.9867
0.9916
0.9963
0.9983
0.9994
0.9998
0.9999
1
0.002469
0.001017
0.0005159
0.0003046
0.0002633
0.0002922
0.0005751
0.0005892
0.0004185
0.0002214
0.0001314
6.922e-05
3.913e-05
7.314e-05
0.0003075
0.001095
0.002608
0.003907
0.003205
0.003417
0.006407
0.01366
0.02458
0.02584
0.02089
0.00946
0.004039
0.002428
0.002666
0.003285
0.004135
0.003726
0.002808
0.003163
0.004082
0.00476
0.003339
0.002786
0.003161
0.0006624
7.74e-05
7.067e-06
8.904e-07
3.37e-07
8.253e-07
6.639e-07
4.594e-07
4.44e-07
4.419e-07
5.637e-07
1.48e-06
2.344e-06
4.558e-06
5.987e-06
4.438e-06
2.995e-06
5.213e-06
2.249e-05
0.0001436
0.001024
0.003538
0.007569
0.01177
0.02018
0.02352
0.0196
0.02002
0.02322
0.02322
0.02824
0.03695
0.0419
0.05609
0.08008
0.1051
0.1569
0.2215
0.3439
0.4287
0.4581
0.4596
0.4497
0.4774
0.4832
0.4828
0.4754
0.4544
0.4542
0.4698
0.4923
0.4832
0.4806
0.4385
0.48
0.5906
0.6696
0.6999
0.6634
0.5772
0.4574
0.4712
0.4402
0.4087
0.3146
0.2453
0.1979
0.1861
0.1579
0.1397
0.105
0.07452
0.04672
0.04146
0.03442
0.03333
0.02869
0.02656
0.02149
0.01979
0.01926
0.01938
0.02028
0.0219
0.02408
0.02678
0.03023
0.03543
0.04432
0.0578
0.07631
0.102
0.1345
0.1744
0.2332
0.3365
0.4677
0.5732
0.6389
0.6818
0.7248
0.7761
0.825
0.8658
0.8907
0.9129
0.9342
0.9559
0.9701
0.9812
0.9873
0.9934
0.9964
0.9985
0.9992
0.9997
0.9998
0.9999
1
1
1
0.002757
0.001125
0.0006469
0.0004324
0.0004327
0.000501
0.0006755
0.0003825
0.0001896
0.0001041
6.044e-05
6.468e-05
8.552e-05
0.0002445
0.001018
0.00221
0.001936
0.0009847
0.0004455
0.0003471
0.0007632
0.002821
0.01073
0.02503
0.03007
0.01445
0.00522
0.002781
0.002485
0.004011
0.006232
0.005508
0.003331
0.0028
0.002486
0.003276
0.004097
0.004931
0.00474
0.0006701
5.429e-05
3.737e-06
5.848e-07
3.712e-07
1.625e-06
2.478e-06
1.646e-06
8.476e-07
2.8e-07
1.646e-07
4.794e-07
1.374e-06
5.222e-06
9.138e-06
4.074e-06
1.417e-06
1.944e-06
9.227e-06
0.0001139
0.00129
0.004591
0.009663
0.01193
0.0188
0.02235
0.02372
0.0271
0.03676
0.04529
0.07249
0.1059
0.1453
0.2038
0.3197
0.4087
0.5228
0.6119
0.6894
0.7197
0.723
0.7147
0.6878
0.7181
0.734
0.7638
0.8008
0.8376
0.8587
0.8769
0.8902
0.8899
0.8946
0.8878
0.882
0.9006
0.9124
0.9153
0.9004
0.8684
0.8151
0.8136
0.8044
0.7835
0.7149
0.6051
0.4939
0.4568
0.3662
0.3084
0.2364
0.173
0.1307
0.1295
0.09519
0.09114
0.08604
0.09576
0.09609
0.1022
0.09547
0.0977
0.107
0.1216
0.1405
0.1642
0.1958
0.2436
0.3156
0.4111
0.4762
0.5377
0.5943
0.6509
0.7077
0.7698
0.8163
0.854
0.8774
0.8944
0.9122
0.9325
0.9518
0.9667
0.9753
0.982
0.9872
0.9919
0.9948
0.9969
0.9978
0.9989
0.9995
0.9998
0.9999
0.9999
1
1
1
1
1
0.002064
0.0009268
0.00067
0.0006162
0.0007612
0.0008182
0.0005244
0.0001889
7.406e-05
4.954e-05
4.448e-05
8.557e-05
0.000228
0.0008995
0.002037
0.002703
0.0009447
0.0001573
4.203e-05
3.29e-05
0.0001101
0.0006246
0.004885
0.01755
0.02889
0.01743
0.01003
0.005995
0.004831
0.006665
0.007741
0.004515
0.001709
0.0007875
0.0006332
0.0008448
0.001703
0.003347
0.00389
0.0008679
9.394e-05
7.539e-06
1.525e-06
1.248e-06
4.173e-06
6.342e-06
4.793e-06
1.991e-06
4.966e-07
2.436e-07
6.532e-07
2.664e-06
1.786e-05
3.881e-05
1.69e-05
4.651e-06
5.494e-06
2.507e-05
0.0003059
0.003842
0.0132
0.02124
0.02347
0.03435
0.04575
0.05764
0.0698
0.08977
0.1188
0.1916
0.3114
0.4898
0.6087
0.689
0.7219
0.7628
0.8024
0.8423
0.868
0.8851
0.8952
0.9039
0.9281
0.9398
0.9557
0.9675
0.9787
0.9843
0.9886
0.9905
0.9916
0.9922
0.9912
0.9885
0.9871
0.9848
0.9838
0.9787
0.9698
0.9501
0.9381
0.9262
0.9175
0.8992
0.8666
0.8314
0.8142
0.7681
0.7155
0.626
0.5821
0.5322
0.5505
0.4696
0.4119
0.3732
0.4332
0.4532
0.4869
0.468
0.4755
0.5021
0.5401
0.5848
0.6352
0.6824
0.729
0.771
0.8089
0.8299
0.8514
0.8721
0.8956
0.9166
0.9379
0.9522
0.9635
0.9704
0.9754
0.9805
0.9859
0.9906
0.994
0.9958
0.997
0.9979
0.9987
0.9991
0.9994
0.9995
0.9997
0.9999
0.9999
1
1
1
1
1
1
1
0.001579
0.0009203
0.0008262
0.0007892
0.0006704
0.000574
0.0002566
0.0001073
5.758e-05
8.925e-05
0.0001098
0.0003473
0.001087
0.002393
0.003025
0.002699
0.0005966
7.499e-05
1.61e-05
1.012e-05
3.861e-05
0.0004369
0.005619
0.01912
0.02771
0.01582
0.01102
0.007895
0.007765
0.01017
0.009379
0.00426
0.001117
0.0004309
0.0002597
0.0003387
0.0007936
0.001577
0.001753
0.000559
8.483e-05
1.403e-05
4.368e-06
3.922e-06
6.774e-06
6.907e-06
4.738e-06
1.478e-06
3.057e-07
1.625e-07
4.404e-07
3.392e-06
4.894e-05
0.0002258
0.0001611
5.085e-05
4.374e-05
0.0001456
0.001104
0.008701
0.02366
0.03353
0.03592
0.04956
0.07019
0.107
0.1567
0.2443
0.3992
0.5555
0.6829
0.765
0.8238
0.854
0.8661
0.8832
0.9062
0.934
0.9585
0.9719
0.9787
0.9817
0.9872
0.9915
0.9958
0.998
0.999
0.9993
0.9996
0.9996
0.9997
0.9996
0.9994
0.9989
0.9982
0.9971
0.9963
0.9956
0.9945
0.9915
0.9886
0.9855
0.9822
0.9773
0.9687
0.9585
0.9495
0.9306
0.906
0.8721
0.8339
0.8028
0.8069
0.7826
0.7717
0.7655
0.7823
0.7987
0.8167
0.8166
0.8237
0.8353
0.8502
0.8675
0.8868
0.9054
0.9228
0.9376
0.9505
0.9577
0.9641
0.9693
0.9756
0.9813
0.9868
0.9905
0.9933
0.995
0.9961
0.997
0.9978
0.9985
0.999
0.9992
0.9994
0.9996
0.9997
0.9998
0.9998
0.9998
0.9999
0.9999
1
1
1
1
1
1
1
0.9999
0.001543
0.001236
0.001101
0.0009279
0.0006147
0.0004388
0.0001744
9.872e-05
0.0001032
0.0001711
0.0003065
0.000996
0.002143
0.002888
0.003271
0.002219
0.0006739
9.748e-05
2.109e-05
1.044e-05
3.409e-05
0.0003334
0.004274
0.01458
0.02527
0.01948
0.01901
0.01724
0.01785
0.01934
0.01491
0.006655
0.002269
0.0009141
0.0004739
0.0004895
0.0009747
0.001569
0.001573
0.0007477
0.0002367
6.196e-05
3.044e-05
2.272e-05
1.754e-05
1.54e-05
8.77e-06
4.652e-06
1.672e-06
1.41e-06
3.025e-06
1.433e-05
0.0001094
0.0003822
0.0003971
0.0002526
0.0003678
0.001049
0.00629
0.02725
0.05063
0.06263
0.07204
0.1067
0.1749
0.292
0.4362
0.577
0.6929
0.7831
0.8481
0.8886
0.9119
0.9223
0.9379
0.9549
0.9701
0.9854
0.993
0.9956
0.9972
0.998
0.9987
0.9993
0.9997
0.9998
0.9999
1
1
1
1
1
0.9999
0.9998
0.9995
0.9991
0.9989
0.9987
0.9985
0.998
0.9974
0.9969
0.9963
0.9954
0.9939
0.9917
0.9891
0.9845
0.978
0.9685
0.9569
0.9456
0.9397
0.9312
0.9283
0.9275
0.9327
0.9388
0.9441
0.9456
0.9482
0.9513
0.9579
0.9657
0.9734
0.9796
0.9843
0.9875
0.9902
0.9917
0.9932
0.9946
0.9958
0.9968
0.9977
0.9983
0.9988
0.9991
0.9993
0.9994
0.9995
0.9997
0.9997
0.9998
0.9998
0.9999
0.9999
0.9999
0.9999
0.9999
0.9999
0.9999
0.9999
0.9999
0.9999
1
1
0.9999
0.9999
0.9999
0.002181
0.002154
0.002017
0.001221
0.0006525
0.000399
0.0002311
0.0002181
0.0004898
0.0006685
0.001061
0.001834
0.002387
0.002096
0.002191
0.001877
0.001261
0.0002621
6.862e-05
2.669e-05
6.306e-05
0.000405
0.003598
0.009728
0.01486
0.01448
0.0186
0.02295
0.02623
0.02718
0.02162
0.0131
0.006849
0.003614
0.001835
0.001515
0.00197
0.002556
0.002645
0.002052
0.001059
0.0004598
0.000303
0.0002256
0.0001184
0.000106
7.489e-05
5.038e-05
2.244e-05
1.738e-05
1.904e-05
4.698e-05
0.0001611
0.000435
0.0006316
0.000949
0.002721
0.01048
0.03825
0.088
0.1157
0.1411
0.2015
0.3503
0.5263
0.6394
0.7083
0.7863
0.8466
0.8876
0.9159
0.9408
0.9533
0.9601
0.9732
0.9845
0.9916
0.9969
0.9986
0.9991
0.9993
0.9994
0.9996
0.9998
0.9999
1
1
1
1
1
1
1
0.9999
0.9998
0.9996
0.9994
0.9993
0.9994
0.9993
0.9993
0.9993
0.9992
0.9991
0.9989
0.9986
0.9981
0.9975
0.9967
0.9957
0.994
0.9916
0.9887
0.9862
0.985
0.9845
0.9842
0.9844
0.9845
0.9848
0.9859
0.9875
0.9893
0.9914
0.9933
0.9948
0.996
0.9969
0.9975
0.998
0.9984
0.9987
0.999
0.9992
0.9994
0.9995
0.9996
0.9997
0.9998
0.9998
0.9998
0.9999
0.9999
0.9999
0.9999
0.9999
0.9999
0.9999
0.9999
0.9999
0.9999
0.9999
0.9999
0.9999
0.9999
0.9999
0.9999
0.9999
0.9999
0.9999
0.9998
0.003929
0.004021
0.003843
0.001436
0.0007335
0.0004066
0.0004434
0.0008602
0.002531
0.00213
0.002381
0.001394
0.001443
0.0009539
0.001171
0.0008315
0.0003962
5.846e-05
1.255e-05
5.022e-06
1.206e-05
7.943e-05
0.0007806
0.00228
0.004922
0.006252
0.008777
0.01353
0.01816
0.01896
0.01654
0.01282
0.01063
0.008274
0.005649
0.004346
0.004965
0.005708
0.006596
0.007411
0.004373
0.002641
0.0018
0.001569
0.0009037
0.001041
0.0008589
0.0006927
0.0003823
0.0003366
0.0002683
0.0003317
0.0006754
0.001649
0.003481
0.007206
0.01981
0.04916
0.1021
0.165
0.2358
0.3197
0.4709
0.6177
0.7231
0.7912
0.8409
0.8901
0.9218
0.941
0.9525
0.9648
0.9725
0.9787
0.986
0.9926
0.9966
0.9988
0.9994
0.9995
0.9995
0.9996
0.9997
0.9998
0.9999
1
1
1
1
1
1
0.9999
0.9998
0.9996
0.9995
0.9994
0.9995
0.9995
0.9995
0.9995
0.9995
0.9996
0.9996
0.9996
0.9996
0.9995
0.9994
0.9992
0.999
0.9986
0.9981
0.9975
0.9968
0.9961
0.9957
0.9953
0.9951
0.995
0.9951
0.9958
0.9966
0.9973
0.998
0.9984
0.9987
0.999
0.9992
0.9994
0.9995
0.9996
0.9997
0.9997
0.9998
0.9998
0.9998
0.9999
0.9999
0.9999
0.9999
0.9999
0.9999
0.9999
0.9999
0.9999
0.9999
0.9999
0.9999
0.9999
0.9999
0.9999
0.9999
0.9999
0.9999
0.9999
0.9999
0.9999
0.9999
0.9999
0.9999
0.9999
0.004906
0.005689
0.006737
0.002262
0.0009272
0.0005017
0.0008304
0.002612
0.007832
0.005117
0.003757
0.001378
0.0007725
0.0006477
0.0005481
0.0001625
5.474e-05
6.555e-06
1.292e-06
5.831e-07
1.892e-06
2.223e-05
0.0003098
0.001355
0.003898
0.004416
0.007502
0.01158
0.01648
0.01696
0.01577
0.01398
0.01437
0.01505
0.01308
0.01186
0.0133
0.01418
0.01606
0.01965
0.01271
0.008209
0.005669
0.005682
0.003713
0.003695
0.003296
0.003258
0.00302
0.00339
0.003232
0.003736
0.005924
0.009895
0.0172
0.03293
0.06496
0.1328
0.2405
0.3685
0.4879
0.5839
0.6629
0.7311
0.7979
0.8558
0.9033
0.939
0.9568
0.9659
0.9703
0.9771
0.9827
0.9874
0.9907
0.9945
0.9971
0.9987
0.9992
0.9991
0.999
0.9992
0.9995
0.9997
0.9998
0.9999
0.9999
0.9999
0.9999
0.9999
0.9997
0.9995
0.9992
0.9988
0.9988
0.9989
0.9991
0.9992
0.9993
0.9993
0.9993
0.9994
0.9995
0.9996
0.9996
0.9996
0.9996
0.9995
0.9995
0.9994
0.9992
0.999
0.9989
0.9989
0.9988
0.9986
0.9984
0.9983
0.9984
0.9987
0.999
0.9993
0.9994
0.9995
0.9996
0.9997
0.9997
0.9998
0.9998
0.9998
0.9999
0.9999
0.9999
0.9999
0.9999
0.9999
0.9999
0.9999
0.9999
0.9999
0.9999
0.9999
0.9999
0.9999
0.9999
0.9999
0.9999
0.9999
0.9999
0.9999
0.9999
0.9999
0.9999
0.9999
0.9999
1
1
1
0.9999
0.9999
0.004274
0.005889
0.009207
0.003942
0.001519
0.0009921
0.002285
0.00676
0.01423
0.008166
0.003937
0.001644
0.0009391
0.0007644
0.0002736
4.647e-05
1.012e-05
1.372e-06
4.186e-07
2.873e-07
1.606e-06
2.102e-05
0.000275
0.001388
0.004861
0.005009
0.007462
0.01104
0.01443
0.01376
0.01318
0.01174
0.01431
0.01709
0.0195
0.02052
0.02441
0.02389
0.02544
0.02828
0.02036
0.0159
0.01288
0.01257
0.007946
0.006624
0.004959
0.005257
0.007336
0.01194
0.01487
0.0166
0.02317
0.03442
0.06465
0.112
0.1921
0.3213
0.4838
0.5967
0.6868
0.7523
0.8113
0.8594
0.9051
0.9414
0.9655
0.9778
0.9824
0.9827
0.9807
0.9815
0.9847
0.988
0.9903
0.9926
0.9948
0.9965
0.9971
0.9966
0.9964
0.9976
0.9986
0.9991
0.9993
0.9995
0.9995
0.9995
0.9993
0.9987
0.9975
0.9967
0.996
0.9957
0.9963
0.9968
0.9972
0.9975
0.9977
0.9979
0.9981
0.9983
0.9987
0.9991
0.9992
0.9993
0.9994
0.9993
0.9994
0.9994
0.9993
0.9993
0.9994
0.9995
0.9995
0.9995
0.9995
0.9994
0.9994
0.9995
0.9997
0.9997
0.9997
0.9998
0.9998
0.9998
0.9999
0.9999
0.9999
0.9999
0.9999
0.9999
0.9999
0.9999
0.9999
0.9999
0.9999
0.9999
0.9999
0.9999
0.9999
0.9999
0.9999
0.9999
0.9999
0.9999
0.9999
0.9999
0.9999
0.9999
0.9999
0.9999
1
1
1
1
1
1
1
0.9999
0.002914
0.005063
0.009673
0.004622
0.001737
0.001587
0.004099
0.01642
0.02467
0.01284
0.004324
0.001676
0.0008719
0.0007202
0.0001144
1.658e-05
4.517e-06
1.271e-06
6.375e-07
6.869e-07
4.906e-06
5.841e-05
0.0008181
0.003744
0.0102
0.00795
0.009661
0.01117
0.01319
0.0132
0.01355
0.01354
0.01901
0.02318
0.02366
0.02392
0.02502
0.01927
0.01541
0.01535
0.01436
0.01618
0.02075
0.02375
0.01648
0.01085
0.006158
0.005729
0.008059
0.01521
0.02476
0.03617
0.06154
0.1058
0.1799
0.2805
0.4225
0.5353
0.6344
0.7221
0.7931
0.8452
0.8904
0.9242
0.9491
0.9681
0.9807
0.9862
0.987
0.985
0.9808
0.9782
0.98
0.983
0.9839
0.9847
0.987
0.9868
0.9857
0.9848
0.9847
0.9885
0.9926
0.9942
0.9952
0.9959
0.9951
0.9942
0.9916
0.9862
0.9809
0.9809
0.9818
0.9833
0.9851
0.9866
0.9876
0.9887
0.9897
0.991
0.9923
0.9937
0.9955
0.9968
0.9976
0.9982
0.9984
0.9985
0.9987
0.9989
0.9988
0.9988
0.999
0.9993
0.9994
0.9995
0.9996
0.9996
0.9997
0.9998
0.9998
0.9998
0.9998
0.9998
0.9998
0.9999
0.9999
0.9999
0.9999
0.9999
0.9999
0.9999
0.9999
0.9999
0.9999
0.9999
0.9999
0.9999
0.9999
0.9999
0.9999
0.9999
0.9999
0.9999
0.9999
0.9999
0.9999
0.9999
0.9999
0.9999
0.9999
1
1
1
1
1
1
1
1
1
0.0034
0.005969
0.0104
0.005438
0.001612
0.001667
0.004917
0.01879
0.02229
0.01006
0.003451
0.001434
0.000591
0.0004514
7.351e-05
1.337e-05
7.587e-06
5.859e-06
4.921e-06
7.869e-06
4.886e-05
0.0003826
0.00331
0.01172
0.02486
0.01757
0.01823
0.01613
0.01484
0.0132
0.01344
0.01581
0.02553
0.03355
0.03181
0.02941
0.02691
0.01903
0.01349
0.01146
0.009709
0.01102
0.01434
0.01933
0.01822
0.01648
0.01215
0.01172
0.01426
0.02681
0.04902
0.08252
0.1395
0.2264
0.3487
0.4761
0.5679
0.6468
0.7283
0.7975
0.8552
0.9031
0.9357
0.9564
0.9694
0.9786
0.9851
0.9873
0.9866
0.9822
0.9752
0.9661
0.9649
0.9668
0.968
0.9674
0.9672
0.9607
0.9528
0.9476
0.9502
0.9591
0.9689
0.9718
0.9735
0.9736
0.9696
0.964
0.9522
0.934
0.9199
0.9212
0.9251
0.9314
0.939
0.9458
0.9508
0.956
0.961
0.9659
0.9714
0.9765
0.9832
0.9878
0.9914
0.9936
0.9945
0.995
0.9962
0.9973
0.9976
0.9977
0.9979
0.9982
0.9987
0.9991
0.9995
0.9996
0.9998
0.9998
0.9998
0.9998
0.9998
0.9998
0.9999
0.9999
0.9999
0.9999
0.9999
0.9999
0.9999
0.9999
0.9999
0.9999
0.9999
0.9999
0.9999
0.9999
0.9999
0.9999
0.9999
0.9999
0.9999
0.9999
0.9999
0.9999
0.9999
0.9999
0.9999
1
1
1
1
1
1
1
1
1
1
0.9999
0.005073
0.008658
0.01427
0.007977
0.002254
0.002296
0.00478
0.01409
0.01518
0.007365
0.002417
0.0013
0.0007163
0.000515
0.0001189
3.898e-05
4.294e-05
7.068e-05
8.91e-05
0.0001486
0.0005892
0.002304
0.008821
0.02
0.03157
0.02327
0.02362
0.01962
0.01635
0.01325
0.01511
0.02146
0.0378
0.05448
0.04868
0.03965
0.0279
0.01771
0.01105
0.008341
0.006409
0.007499
0.01054
0.01755
0.02639
0.0344
0.03258
0.03508
0.0399
0.05928
0.08907
0.1557
0.2589
0.4158
0.546
0.6496
0.7276
0.7919
0.8378
0.8732
0.9067
0.9351
0.9546
0.9675
0.9744
0.9785
0.9821
0.9826
0.9802
0.9741
0.9626
0.9462
0.9366
0.9289
0.9292
0.9305
0.9265
0.9132
0.8963
0.8788
0.8796
0.8762
0.8691
0.8616
0.8389
0.81
0.7862
0.7531
0.724
0.7221
0.7191
0.7279
0.7357
0.7501
0.7715
0.7943
0.8192
0.8463
0.8698
0.8914
0.9147
0.9324
0.9491
0.9592
0.9671
0.9744
0.9795
0.9827
0.9878
0.9918
0.9936
0.9942
0.9945
0.9945
0.9956
0.9975
0.999
0.9995
0.9997
0.9998
0.9998
0.9998
0.9998
0.9999
0.9999
0.9999
0.9999
0.9999
0.9999
0.9999
0.9999
0.9999
0.9999
0.9999
0.9999
0.9999
0.9999
0.9999
0.9999
0.9999
0.9999
0.9999
0.9999
0.9999
0.9999
0.9999
0.9999
0.9999
1
1
1
1
1
1
1
1
1
0.9999
0.9999
0.9998
0.008804
0.01407
0.02109
0.01006
0.003013
0.002561
0.00328
0.008509
0.01111
0.007019
0.003243
0.002828
0.001976
0.00149
0.0004951
0.0002098
0.000247
0.0004973
0.0008126
0.001815
0.004443
0.007612
0.01139
0.01323
0.01374
0.01346
0.02036
0.01739
0.01464
0.01089
0.01061
0.01331
0.02519
0.04244
0.04609
0.04213
0.0311
0.0212
0.01514
0.01179
0.009177
0.01034
0.01436
0.0244
0.0456
0.07582
0.08651
0.1026
0.1138
0.1428
0.2014
0.3248
0.4754
0.5986
0.6874
0.7613
0.8183
0.8644
0.896
0.9201
0.9401
0.9552
0.9641
0.9701
0.9709
0.97
0.9716
0.9708
0.9674
0.9608
0.9467
0.9214
0.8957
0.8729
0.8723
0.8761
0.8714
0.8515
0.8218
0.7827
0.7597
0.7229
0.6772
0.633
0.5767
0.5437
0.5246
0.5045
0.4701
0.4779
0.4785
0.491
0.4931
0.5099
0.5367
0.5662
0.6186
0.6698
0.7115
0.7512
0.7991
0.8344
0.8714
0.8957
0.9172
0.9351
0.9472
0.9543
0.9679
0.9781
0.9839
0.9855
0.986
0.984
0.9862
0.9925
0.9974
0.9991
0.9995
0.9997
0.9997
0.9998
0.9998
0.9999
0.9999
0.9999
0.9999
0.9999
0.9999
0.9999
0.9999
0.9999
0.9999
0.9999
0.9999
0.9999
0.9999
0.9999
0.9999
0.9999
0.9999
0.9999
0.9999
0.9999
0.9999
0.9999
0.9999
1
1
1
1
1
1
1
1
0.9999
0.9999
0.9998
0.9997
0.9994
0.0118
0.01811
0.02592
0.01167
0.003741
0.001976
0.001608
0.004271
0.00846
0.008987
0.005726
0.007355
0.005533
0.004271
0.002072
0.001174
0.001381
0.002891
0.004177
0.007824
0.01278
0.01302
0.01109
0.008919
0.008409
0.009904
0.02055
0.01835
0.01619
0.01217
0.01054
0.01062
0.01759
0.03191
0.04526
0.05343
0.04661
0.036
0.02838
0.0233
0.01941
0.02238
0.03043
0.047
0.07953
0.128
0.1583
0.2035
0.2616
0.3333
0.4271
0.5331
0.6257
0.7115
0.7782
0.8334
0.8763
0.9115
0.9352
0.9524
0.9612
0.9659
0.9658
0.9614
0.9535
0.9423
0.9359
0.932
0.9323
0.9302
0.9192
0.8903
0.8513
0.8108
0.7955
0.7972
0.784
0.7471
0.6907
0.6159
0.5599
0.4906
0.4164
0.3693
0.307
0.2832
0.2541
0.2451
0.2099
0.1961
0.1846
0.1878
0.1987
0.2241
0.237
0.2375
0.2693
0.3174
0.3848
0.4428
0.5256
0.5909
0.6579
0.7146
0.7716
0.8159
0.8515
0.8727
0.9045
0.9285
0.9481
0.9566
0.9606
0.9591
0.9676
0.9813
0.9934
0.9978
0.9992
0.9996
0.9997
0.9997
0.9998
0.9999
0.9999
0.9999
0.9999
0.9999
0.9999
0.9999
0.9999
0.9999
0.9999
0.9999
0.9999
0.9999
0.9999
0.9999
0.9999
0.9999
0.9999
0.9999
0.9999
0.9999
1
1
1
1
1
1
1
1
0.9999
0.9999
0.9999
0.9998
0.9995
0.9991
0.9984
0.9968
0.01205
0.01765
0.02651
0.01026
0.003623
0.001149
0.0007369
0.002151
0.008169
0.01527
0.01521
0.02033
0.01515
0.01172
0.006944
0.005153
0.004374
0.007687
0.00931
0.01508
0.01863
0.01475
0.01062
0.007496
0.009119
0.01307
0.02806
0.0267
0.02288
0.01599
0.0124
0.009964
0.01291
0.02235
0.03869
0.06054
0.06971
0.0582
0.05039
0.04575
0.04536
0.05804
0.07824
0.1051
0.1458
0.2003
0.2479
0.3132
0.4073
0.4913
0.5668
0.6442
0.7128
0.7703
0.8234
0.8689
0.9071
0.9382
0.9585
0.9717
0.9763
0.975
0.967
0.9546
0.9375
0.9225
0.9142
0.9077
0.9058
0.9032
0.8875
0.8466
0.7869
0.7197
0.6768
0.6536
0.6099
0.5366
0.4477
0.3432
0.2852
0.2362
0.2014
0.1797
0.1363
0.1055
0.08741
0.08216
0.07831
0.08087
0.07751
0.07505
0.08293
0.0965
0.1098
0.1128
0.128
0.1454
0.1724
0.1928
0.2251
0.2595
0.3194
0.4113
0.5038
0.5531
0.6074
0.6558
0.7191
0.7751
0.8285
0.8685
0.9003
0.9241
0.9551
0.9743
0.9886
0.9961
0.9987
0.9994
0.9997
0.9997
0.9998
0.9998
0.9999
0.9999
0.9999
0.9999
0.9999
0.9999
0.9999
0.9999
0.9999
0.9999
0.9999
0.9999
0.9999
0.9999
0.9999
1
1
1
1
1
1
1
1
1
1
1
0.9999
0.9999
0.9998
0.9996
0.9993
0.9987
0.9972
0.9947
0.9909
0.9813
0.008783
0.01268
0.02166
0.01077
0.00638
0.001674
0.0009062
0.001597
0.006215
0.0103
0.01429
0.02002
0.01937
0.01558
0.01053
0.009748
0.008201
0.01233
0.01704
0.02165
0.0206
0.01585
0.01189
0.008953
0.009459
0.01192
0.02285
0.02477
0.02661
0.02253
0.01739
0.01169
0.01197
0.0165
0.02938
0.0521
0.06899
0.0592
0.05671
0.06129
0.07638
0.1141
0.157
0.1959
0.2391
0.2973
0.369
0.4467
0.5175
0.5833
0.6404
0.6945
0.7443
0.7888
0.8349
0.8784
0.9162
0.9478
0.9681
0.9796
0.9814
0.9767
0.9624
0.9401
0.9132
0.8953
0.8819
0.8659
0.8561
0.8425
0.8185
0.7626
0.6826
0.5963
0.5378
0.4874
0.4113
0.3109
0.2367
0.1857
0.1479
0.1201
0.09284
0.07371
0.05021
0.03494
0.02688
0.02635
0.02742
0.03122
0.02899
0.02677
0.03221
0.0423
0.05412
0.06143
0.06926
0.07485
0.08901
0.1007
0.1119