/*--------------------------------*- C++ -*----------------------------------*\
| =========                 |                                                 |
| \\      /  F ield         | OpenFOAM: The Open Source CFD Toolbox           |
|  \\    /   O peration     | Version:  5.x                                   |
|   \\  /    A nd           | Web:      www.OpenFOAM.org                      |
|    \\/     M anipulation  |                                                 |
\*---------------------------------------------------------------------------*/
FoamFile
{
    version     2.0;
    format      ascii;
    class       volScalarField;
    location    "180";
    object      gamma;
}
// * * * * * * * * * * * * * * * * * * * * * * * * * * * * * * * * * * * * * //

dimensions      [0 0 0 0 0 0 0];

internalField   nonuniform List<scalar> 
86400
(
9.12e-08
1.194e-07
2.08e-07
4.597e-07
1.218e-06
2.183e-06
2.674e-06
3.05e-06
3.547e-06
3.226e-06
4.64e-06
5.247e-06
5.303e-06
3.341e-06
2.295e-06
2.296e-06
6.108e-06
1.865e-05
3.794e-05
4.956e-05
5.507e-05
7.745e-05
0.000184
0.0002883
0.0003643
0.000619
0.0006459
0.0007443
0.0007809
0.0006877
0.0005565
0.0004776
0.0004798
0.0005431
0.0007787
0.001328
0.001971
0.00254
0.002263
0.002301
0.001978
0.001913
0.00159
0.001073
0.0009746
0.001301
0.002254
0.003427
0.004855
0.004269
0.00414
0.004345
0.00476
0.005564
0.006435
0.008366
0.01099
0.01188
0.01093
0.009508
0.007235
0.007088
0.006995
0.007799
0.01048
0.01494
0.0159
0.01549
0.01102
0.009408
0.0115
0.01772
0.02085
0.01814
0.01554
0.01362
0.01159
0.01327
0.01638
0.01541
0.0148
0.01263
0.01169
0.0135
0.01928
0.02188
0.02321
0.02068
0.02093
0.02054
0.01602
0.01583
0.01667
0.02242
0.02557
0.02755
0.0219
0.02021
0.01959
0.0183
0.01625
0.0114
0.007806
0.004671
0.002939
0.003086
0.004969
0.008009
0.006291
0.003474
0.001537
0.0009994
0.001081
0.001394
0.001425
0.001286
0.001147
0.001039
0.001012
0.001009
0.0009968
0.0009608
0.0008321
0.0006646
0.0005512
0.0005004
0.0004499
0.0004329
0.000397
0.0003384
0.000263
0.0002697
0.0002135
0.0001307
8.485e-05
6.297e-05
7.24e-05
0.0001248
8.498e-05
2.72e-05
9.265e-06
4.447e-06
4.245e-06
2.91e-06
6.413e-07
8.271e-08
1.228e-08
1.315e-09
3.989e-10
4.388e-10
7.394e-10
4.443e-09
7.58e-08
6.97e-07
6.853e-06
3.716e-05
9.386e-05
0.0002324
0.07735
0.9992
1.239e-07
1.338e-07
2.066e-07
3.927e-07
1.079e-06
1.952e-06
2.288e-06
2.178e-06
1.701e-06
1.251e-06
1.783e-06
2.561e-06
4.19e-06
5.151e-06
4.155e-06
2.927e-06
6.289e-06
1.85e-05
4.7e-05
0.0001188
0.0001604
0.0001977
0.0003084
0.0004468
0.0005735
0.0007922
0.0009223
0.001125
0.001384
0.001093
0.0009019
0.0007987
0.0008709
0.001059
0.001641
0.002832
0.004699
0.006871
0.007219
0.007329
0.0057
0.004616
0.003782
0.002645
0.001966
0.002276
0.00316
0.004559
0.007068
0.007865
0.008477
0.009919
0.01223
0.01457
0.01205
0.009342
0.007312
0.005536
0.004313
0.004296
0.003708
0.003573
0.003235
0.003161
0.003592
0.005865
0.00724
0.008563
0.007458
0.007932
0.01081
0.01573
0.01245
0.008245
0.005109
0.005064
0.007335
0.01328
0.01911
0.01857
0.0162
0.01351
0.01468
0.01809
0.02816
0.03449
0.0401
0.03759
0.0416
0.04694
0.04503
0.04745
0.04676
0.04285
0.03629
0.02945
0.02069
0.01722
0.01566
0.0138
0.01363
0.01387
0.01545
0.01388
0.009107
0.007221
0.008442
0.01076
0.009572
0.006135
0.002549
0.001472
0.001062
0.0009218
0.0007718
0.0007864
0.001102
0.001939
0.003128
0.003621
0.003699
0.003569
0.003063
0.002427
0.002044
0.001908
0.001716
0.001645
0.001439
0.001172
0.0009018
0.0007087
0.0004301
0.0002691
0.0002029
0.0001511
0.0001572
0.0001834
0.00011
3.138e-05
1.318e-05
4.924e-06
2.59e-06
1.353e-06
3.264e-07
7.343e-08
2.129e-08
7.472e-09
1.037e-08
2.274e-08
6.615e-08
3.04e-07
2.458e-06
1.593e-05
0.0001919
0.002456
0.03131
0.6345
0.9698
0.9998
2.099e-07
2.026e-07
2.769e-07
4.321e-07
1.071e-06
1.751e-06
1.83e-06
1.512e-06
9.228e-07
7.859e-07
1.214e-06
2.687e-06
5.158e-06
9.113e-06
7.213e-06
6.25e-06
1.575e-05
5.083e-05
9.571e-05
0.0002219
0.000209
0.0002265
0.0003539
0.0005692
0.0006253
0.0009906
0.001391
0.002072
0.003091
0.002713
0.002118
0.002256
0.0024
0.002408
0.002584
0.00303
0.004043
0.005465
0.004514
0.004012
0.002813
0.002467
0.002102
0.001926
0.001636
0.002232
0.003938
0.006525
0.0108
0.01361
0.01138
0.00859
0.00676
0.005779
0.004022
0.003691
0.00305
0.002222
0.001645
0.001685
0.001689
0.001866
0.002047
0.002593
0.00263
0.0033
0.003836
0.004663
0.004355
0.005497
0.007177
0.007536
0.00455
0.003426
0.003027
0.005215
0.01191
0.02476
0.0341
0.03596
0.0309
0.02353
0.02492
0.03006
0.05053
0.06117
0.07217
0.07183
0.06436
0.05249
0.03674
0.02606
0.01754
0.01691
0.01615
0.01561
0.01462
0.01478
0.01296
0.01172
0.01305
0.01658
0.02333
0.02474
0.01973
0.01637
0.0144
0.01608
0.01434
0.009607
0.005345
0.004096
0.002524
0.001877
0.001512
0.001698
0.002216
0.003298
0.004055
0.003389
0.002913
0.002996
0.002665
0.002183
0.001813
0.0016
0.001338
0.001194
0.0009716
0.0008466
0.0007477
0.0005749
0.0003077
0.0001462
9.64e-05
7.704e-05
0.0001113
0.0001639
0.0001317
5.049e-05
1.789e-05
6.274e-06
4.01e-06
2.554e-06
1.034e-06
3.381e-07
1.357e-07
8.496e-08
2.235e-07
7.699e-07
2.782e-06
9.731e-06
6.762e-05
0.0005233
0.007411
0.1783
0.8862
0.9945
0.9998
1
3.751e-07
3.51e-07
3.822e-07
4.594e-07
9.103e-07
1.222e-06
1.018e-06
7.201e-07
4.615e-07
5.66e-07
8.102e-07
1.015e-06
1.085e-06
2.962e-06
3.731e-06
6.284e-06
1.692e-05
2.816e-05
2.447e-05
2.898e-05
2.163e-05
1.599e-05
3.617e-05
7.653e-05
8.694e-05
0.0001725
0.0003575
0.0006756
0.001385
0.001727
0.001392
0.001978
0.002638
0.003046
0.003149
0.003266
0.003605
0.004711
0.003279
0.002865
0.002314
0.002351
0.002896
0.003533
0.002311
0.002149
0.002046
0.002375
0.003313
0.004766
0.003506
0.002293
0.001948
0.001811
0.001301
0.001241
0.0009304
0.0006728
0.0005978
0.0008085
0.0009923
0.001367
0.001789
0.002056
0.0019
0.002275
0.002371
0.002648
0.002629
0.004289
0.007176
0.007384
0.005057
0.004436
0.003367
0.006452
0.01473
0.02543
0.02562
0.02769
0.02282
0.0185
0.01876
0.01956
0.02367
0.02577
0.02973
0.03115
0.03308
0.03731
0.0406
0.03895
0.02737
0.02522
0.02155
0.01952
0.01934
0.02112
0.01848
0.01858
0.01875
0.01955
0.0295
0.03265
0.02372
0.01811
0.01145
0.01082
0.01004
0.008977
0.00509
0.004485
0.002505
0.001674
0.001264
0.001738
0.003036
0.00553
0.007039
0.005616
0.004388
0.004644
0.004295
0.003674
0.003113
0.002716
0.002222
0.001945
0.001663
0.001553
0.00151
0.001203
0.0006324
0.0003011
0.0001788
8.749e-05
6.977e-05
4.901e-05
2.8e-05
1.517e-05
6.43e-06
2.532e-06
2.133e-06
2.207e-06
1.765e-06
1.242e-06
1.164e-06
1.562e-06
9.471e-06
5.592e-05
0.000345
0.001482
0.00889
0.07583
0.7189
0.9752
0.9991
1
1
1
8.373e-07
9.133e-07
8.788e-07
9.247e-07
1.199e-06
1.036e-06
5.174e-07
3.973e-07
3.404e-07
5.69e-07
6.626e-07
3.999e-07
1.895e-07
5.548e-07
1.049e-06
5.204e-06
2.986e-05
2.053e-05
4.694e-06
3.103e-06
2.663e-06
2.221e-06
9.216e-06
2.071e-05
2.706e-05
8.403e-05
0.0003238
0.001244
0.003326
0.003474
0.001362
0.001126
0.001012
0.001044
0.00112
0.001097
0.0009107
0.001372
0.001451
0.002123
0.001767
0.001382
0.0006552
0.0003887
0.0001658
0.0001418
0.0001165
0.0001564
0.0003262
0.000897
0.001103
0.001142
0.0009955
0.001071
0.0009072
0.0009754
0.0008306
0.0006549
0.0008233
0.001494
0.002442
0.00394
0.006101
0.007035
0.004657
0.003147
0.002447
0.002077
0.001812
0.002719
0.00455
0.004057
0.003919
0.004859
0.005456
0.008451
0.01571
0.01618
0.01284
0.01521
0.01311
0.01064
0.01122
0.01321
0.01806
0.02439
0.03014
0.02902
0.02746
0.02853
0.02765
0.0326
0.02598
0.02404
0.0183
0.01775
0.01245
0.01283
0.01266
0.01123
0.007322
0.003816
0.003168
0.003658
0.004439
0.008245
0.009395
0.008065
0.007037
0.01008
0.007209
0.007642
0.004883
0.003599
0.002532
0.00244
0.002308
0.002495
0.00197
0.001641
0.001277
0.001385
0.00132
0.001219
0.001107
0.001007
0.0008438
0.0007671
0.0007131
0.0007455
0.00079
0.0005666
0.0002389
8.472e-05
2.047e-05
6.237e-06
4.279e-06
5.098e-06
3.936e-06
3.497e-06
2.07e-06
1.493e-06
2.148e-06
4.56e-06
9.134e-06
1.586e-05
3.126e-05
7.563e-05
0.0005543
0.003084
0.01906
0.09714
0.5686
0.9343
0.9952
0.9998
1
1
1
1
1.298e-06
1.894e-06
1.806e-06
1.895e-06
1.332e-06
7.682e-07
2.984e-07
2.708e-07
3.789e-07
1.041e-06
1.28e-06
3.713e-07
8.701e-08
1.662e-07
9.137e-07
6.792e-06
3.188e-05
1.291e-05
2.385e-06
1.885e-06
3.278e-06
4.187e-06
2.26e-05
1.438e-05
7.39e-06
9.875e-06
3.12e-05
0.0001425
0.0008285
0.0008441
0.0002646
0.0001713
0.0001484
0.0001713
0.0003273
0.0004062
0.0002442
0.0002716
0.0003017
0.0002853
0.000132
6.456e-05
1.481e-05
5.104e-06
1.992e-06
7.511e-07
1.47e-07
1.433e-07
3.384e-07
1.652e-06
4.072e-06
1.157e-05
2.668e-05
5.071e-05
6.773e-05
6.47e-05
4.643e-05
5.431e-05
0.0002111
0.0009373
0.002964
0.004577
0.003781
0.003009
0.001751
0.00116
0.001923
0.00279
0.002876
0.004612
0.008116
0.006226
0.005591
0.005602
0.004048
0.003556
0.002463
0.001812
0.001599
0.002893
0.004965
0.01086
0.01693
0.02317
0.02954
0.03464
0.03499
0.03216
0.03475
0.04598
0.04175
0.02009
0.00506
0.001386
0.0003853
0.0002408
0.0001273
0.0001447
0.0001641
0.0002924
0.0004011
0.0004136
0.0003585
0.0003616
0.0003867
0.0008607
0.00117
0.001921
0.002776
0.002882
0.001701
0.001723
0.001379
0.001364
0.001117
0.001018
0.0008743
0.0008566
0.0007302
0.0006662
0.0005158
0.0005122
0.0004758
0.000458
0.0004297
0.0003681
0.0002907
0.0002192
0.0001535
9.859e-05
8.501e-05
7.26e-05
5.387e-05
3.79e-05
1.419e-05
4.361e-06
2.152e-06
2.121e-06
2.07e-06
3.099e-06
2.776e-06
3.655e-06
8.067e-06
3.076e-05
0.0001198
0.0004112
0.001391
0.005141
0.02825
0.158
0.7414
0.9483
0.9933
0.9997
1
1
1
1
1
1
1.504e-06
2.925e-06
2.497e-06
2.166e-06
1.175e-06
6.237e-07
2.4e-07
3.918e-07
1.319e-06
5.047e-06
5.214e-06
1.071e-06
9.231e-08
1.009e-07
2.817e-07
3.382e-06
2.91e-05
3.222e-05
1.078e-05
1.199e-05
2.905e-05
3.563e-05
0.0001231
2.739e-05
8.093e-06
5.474e-06
1.226e-05
4.26e-05
0.0003471
0.0003834
0.0001235
5.091e-05
4.862e-05
7.827e-05
0.0001774
0.000195
7.288e-05
5.667e-05
9.205e-05
9.411e-05
2.804e-05
6.09e-06
4.786e-07
7.227e-08
2.424e-08
3.368e-09
2.876e-10
1.989e-10
4.795e-10
4.101e-09
1.865e-08
7.923e-08
2.811e-07
8.679e-07
1.636e-06
1.798e-06
1.72e-06
3.621e-06
3.962e-05
0.0003189
0.001946
0.004158
0.003532
0.003653
0.003711
0.002671
0.00561
0.008926
0.008457
0.007915
0.01175
0.004498
0.001988
0.001297
0.0009992
0.001184
0.0007098
0.0003915
0.0001664
0.0001773
0.0003645
0.001951
0.005121
0.005735
0.006071
0.00572
0.006335
0.009667
0.02804
0.06924
0.04805
0.01905
0.00381
0.0007522
0.000146
7.935e-05
2.508e-05
2.046e-05
1.517e-05
4.177e-05
9.382e-05
0.0001308
0.0001373
7.222e-05
3.286e-05
2.876e-05
2.943e-05
3.822e-05
0.0001392
0.000257
0.00039
0.0006972
0.0008115
0.001069
0.00112
0.001025
0.0006711
0.0005228
0.0003834
0.0004149
0.0003927
0.0003494
0.0002471
0.0001403
8.729e-05
6.419e-05
5.806e-05
5.363e-05
4.444e-05
2.374e-05
1.896e-05
2.073e-05
2.523e-05
2.844e-05
1.705e-05
7.695e-06
6.863e-06
1.424e-05
2.621e-05
7.874e-05
0.0001532
0.000318
0.0008982
0.003763
0.01351
0.04956
0.1965
0.6514
0.9128
0.9832
0.9981
0.9998
1
1
1
1
1
1
1
1
2.534e-06
4.668e-06
2.906e-06
2.164e-06
1.284e-06
7.659e-07
4.573e-07
1.572e-06
4.897e-06
9.119e-06
9.053e-06
1.499e-06
1.195e-07
1.036e-07
2.373e-07
2.091e-06
2.05e-05
6.206e-05
9.524e-05
0.0003488
0.0007168
0.0006874
0.001211
0.0002719
5.47e-05
1.089e-05
1.526e-05
3.075e-05
0.0001907
0.0002778
0.0001392
0.000116
0.0001154
0.0001872
0.0003233
0.0002924
0.000102
9.931e-05
0.0002527
0.0001224
1.984e-05
1.611e-06
1.104e-07
1.013e-08
4.072e-09
2.817e-10
1.499e-11
8.302e-12
2.3e-11
2.336e-10
1.564e-09
1.205e-08
9.628e-08
5.673e-07
1.099e-06
4.475e-07
1.774e-07
2.245e-07
2.346e-06
2.935e-05
0.0004379
0.002023
0.002638
0.003668
0.004871
0.004133
0.007814
0.008073
0.003871
0.001116
0.0007105
0.0002514
9.27e-05
5.906e-05
7.758e-05
0.0001099
8.612e-05
0.0001572
0.0001178
0.0002409
0.0007197
0.006821
0.02398
0.03638
0.03214
0.05047
0.3621
0.8289
0.9726
0.9905
0.9841
0.9457
0.7508
0.1239
0.02079
0.006915
0.0009871
0.000379
0.0001338
0.0001323
0.0001319
0.000269
9.839e-05
1.149e-05
1.436e-06
7.014e-07
1.538e-06
4.127e-06
1.962e-05
1.7e-05
2.142e-05
3.085e-05
5.127e-05
9.368e-05
0.0001017
8.998e-05
9.431e-05
9.697e-05
9.54e-05
0.0001733
0.000287
0.0003849
0.0003362
0.0001758
8.902e-05
6.259e-05
6.469e-05
6.84e-05
6.504e-05
3.282e-05
2.548e-05
2.968e-05
7.329e-05
0.000157
0.0002221
0.0001758
0.0001881
0.0003282
0.0008132
0.003397
0.01114
0.03647
0.1213
0.4315
0.7935
0.9513
0.9894
0.9984
0.9998
1
1
1
1
1
1
1
1
1
1
1
4.111e-06
5.388e-06
2.646e-06
1.759e-06
1.107e-06
8.987e-07
1.274e-06
3.835e-06
6.635e-06
7.823e-06
4.184e-06
9.802e-07
2.658e-07
2.915e-07
7.073e-07
3.346e-06
1.107e-05
3.788e-05
9.692e-05
0.0001584
0.0003523
0.000678
0.002278
0.001677
0.0006582
0.0001881
8.462e-05
0.0001064
0.0003026
0.0004883
0.000355
0.000528
0.0004538
0.0005965
0.0004894
0.0002277
4.835e-05
7.237e-05
0.0001764
3.702e-05
3.817e-06
2.376e-07
2.376e-08
3.622e-09
3.597e-09
5.406e-10
7.695e-11
5.073e-11
1.282e-10
2.788e-10
9.162e-10
3.85e-09
2.168e-08
1.116e-07
2.494e-07
1.246e-07
4.055e-08
3.989e-08
2.587e-07
4.119e-06
0.0001374
0.001421
0.004119
0.006768
0.00597
0.002102
0.001388
0.0007077
0.0002191
4.995e-05
3.161e-05
1.66e-05
8.918e-06
8.551e-06
4.33e-05
0.0003184
0.001035
0.006519
0.01509
0.04838
0.3922
0.8792
0.9649
0.9828
0.9884
0.9954
0.9991
0.9998
1
1
0.9999
0.9991
0.9969
0.9903
0.9873
0.9788
0.9236
0.6752
0.09597
0.02492
0.01198
0.01122
0.002137
0.0001082
1.081e-05
1.518e-06
1.11e-06
1.483e-06
3.169e-06
8.518e-07
6.337e-07
4.278e-07
5.577e-07
1.43e-06
5.53e-06
2.161e-05
4.973e-05
4.832e-05
3.483e-05
3.451e-05
5.256e-05
0.0001055
0.0001332
8.643e-05
4.604e-05
3.042e-05
3.955e-05
6.085e-05
8.581e-05
7.011e-05
8.713e-05
0.0001654
0.0004895
0.00158
0.004622
0.009033
0.02064
0.06181
0.2403
0.7065
0.9063
0.973
0.9913
0.997
0.9993
0.9999
1
1
1
1
1
1
1
1
1
1
1
1
1
1
3.248e-06
3.245e-06
1.868e-06
1.396e-06
1.287e-06
1.743e-06
2.316e-06
3.834e-06
4.016e-06
3.413e-06
1.247e-06
5.714e-07
4.69e-07
8.039e-07
2.723e-06
7.184e-06
2.625e-05
3.387e-05
4.971e-05
2.865e-05
4.701e-05
0.0001401
0.0008325
0.002371
0.002255
0.0008075
0.0001964
0.000212
0.000266
0.0006265
0.001081
0.002831
0.002669
0.002814
0.000789
0.0002311
8.441e-05
0.0001515
0.0001395
1.17e-05
8.074e-07
4.682e-08
9.81e-09
5.158e-09
7.64e-09
2.186e-09
1.213e-09
1.452e-09
1.504e-09
9.37e-10
8.648e-10
1.137e-09
7.391e-09
6.68e-08
2.026e-07
1.558e-07
8.266e-08
6.816e-08
2.388e-07
3.53e-06
8.381e-05
0.001136
0.002626
0.002746
0.00114
0.0002097
5.511e-05
3.044e-05
1.782e-05
9.511e-06
1.622e-05
2.751e-05
8.159e-05
0.0003507
0.002768
0.01968
0.105
0.6579
0.9082
0.978
0.9967
0.9995
0.9999
0.9999
0.9999
1
1
1
1
1
1
1
1
1
1
1
0.9999
0.9996
0.9975
0.9881
0.9605
0.9125
0.6666
0.04273
0.001853
0.0002049
5.453e-05
2.92e-05
1.846e-05
1.21e-06
1.462e-07
2.928e-08
1.858e-08
1.747e-08
1.284e-07
1.48e-06
6.664e-06
1.303e-05
1.527e-05
1.173e-05
2.286e-05
0.0001089
0.0002395
0.0003241
0.0003682
0.000418
0.0008173
0.001903
0.004238
0.005486
0.008781
0.01732
0.04545
0.1917
0.6674
0.8816
0.962
0.9869
0.9954
0.9989
0.9998
1
1
1
1
1
1
1
1
1
1
1
1
1
1
1
1
1
1
1
2.721e-06
2.109e-06
1.625e-06
2.004e-06
3.169e-06
2.297e-06
1.035e-06
7.053e-07
4.422e-07
4.283e-07
3.709e-07
3.741e-07
1.018e-06
4.163e-06
1.034e-05
2.795e-05
5.161e-05
2.357e-05
1.887e-05
5.908e-06
8.995e-06
1.986e-05
0.0002259
0.001584
0.003653
0.002437
0.001703
0.00129
0.000793
0.001247
0.001393
0.001882
0.001131
0.0008077
0.0002421
8.25e-05
6.033e-05
0.0002177
0.0001304
1.296e-05
5.491e-07
4.496e-08
5.918e-09
2.985e-09
2.605e-09
3.2e-09
2.12e-08
7.903e-08
8.518e-08
1.556e-08
1.744e-09
5.814e-10
3.84e-09
9.093e-08
9.147e-07
3.164e-06
3.185e-06
1.963e-06
3.429e-06
3.206e-05
0.0002445
0.0008845
0.0008332
0.0003983
9.054e-05
2.147e-05
8.289e-06
1.191e-05
2.718e-05
6.612e-05
0.0002649
0.002627
0.01651
0.1438
0.8067
0.9652
0.9942
0.9989
0.9998
1
1
1
1
1
1
1
1
1
1
1
1
1
1
1
1
1
1
1
1
1
0.9999
0.9997
0.9989
0.9942
0.97
0.8154
0.1485
0.0162
0.002635
0.000149
9.802e-06
7.384e-07
2.124e-07
1.344e-07
1.063e-06
1.255e-05
5.059e-05
8.054e-05
0.0001017
6.472e-05
0.0001234
0.0006727
0.002252
0.005285
0.01009
0.01369
0.02054
0.04692
0.1848
0.6481
0.9073
0.9722
0.99
0.9965
0.999
0.9998
1
1
1
1
1
1
1
1
1
1
1
1
1
1
1
1
1
1
1
1
1
1
1
1
2.452e-06
1.843e-06
1.838e-06
2.987e-06
5.312e-06
3.702e-06
8.11e-07
3.022e-07
1.057e-07
2.158e-07
3.007e-07
1.496e-06
6.847e-06
1.628e-05
3.711e-05
0.000113
0.0001055
6.092e-05
3.305e-05
8.779e-06
1.29e-05
3.638e-05
0.0003491
0.001576
0.003684
0.003236
0.004397
0.003501
0.002946
0.003125
0.002979
0.002252
0.0009318
0.0003525
0.0001944
0.0001016
0.0001211
0.0005181
0.0001544
1.162e-05
3.853e-07
1.677e-08
1.36e-09
7.594e-10
3.793e-10
1.141e-09
1.607e-08
2.202e-07
2.619e-07
4.181e-08
2.137e-09
7.229e-10
7.012e-09
3.538e-07
7.334e-06
2.992e-05
4.306e-05
3.789e-05
4.058e-05
9.85e-05
8.877e-05
5.745e-05
2.501e-05
1.309e-05
5.625e-06
8.652e-06
2.303e-05
0.0001617
0.001633
0.01394
0.1274
0.8105
0.9686
0.9947
0.9993
0.9999
1
1
1
1
1
1
1
1
1
1
1
1
1
1
1
1
1
1
1
1
1
1
1
1
1
1
1
1
0.9999
0.9996
0.9979
0.993
0.9673
0.8089
0.1418
0.01185
0.003764
0.002534
0.006835
0.02168
0.02605
0.0211
0.01995
0.01168
0.0137
0.03438
0.09872
0.5285
0.8716
0.9637
0.988
0.9941
0.9975
0.9991
0.9998
1
1
1
1
1
1
1
1
1
1
1
1
1
1
1
1
1
1
1
1
1
1
1
1
1
1
1
1
1
1.105e-06
1.043e-06
1.206e-06
1.922e-06
4.898e-06
4.239e-06
8.059e-07
2.799e-07
2.301e-07
5.393e-07
1.547e-06
1.167e-05
2.739e-05
5.708e-05
9.37e-05
0.000143
0.0001258
9.72e-05
5.077e-05
1.77e-05
2.452e-05
6.412e-05
0.0003557
0.0009502
0.002375
0.002817
0.007025
0.007256
0.0087
0.007069
0.007572
0.004378
0.002198
0.001122
0.0005868
0.0003481
0.000449
0.001294
0.0002324
2.273e-05
1.043e-06
5.004e-08
2.235e-09
1.44e-09
6.246e-10
3.027e-09
7.748e-08
2.102e-06
1.99e-06
3.982e-07
1.065e-08
2.168e-09
1.103e-08
4.837e-07
7.102e-06
3.483e-05
6.462e-05
6.59e-05
6.388e-05
6.227e-05
2.409e-05
8.95e-06
3.342e-06
5.203e-06
1.75e-05
0.0001606
0.002266
0.05553
0.6846
0.9481
0.9913
0.9989
0.9998
1
1
1
1
1
1
1
1
1
1
1
1
1
1
1
1
1
1
1
1
1
1
1
1
1
1
1
1
1
1
1
1
1
1
1
0.9999
0.9996
0.9987
0.9972
0.9963
0.9948
0.9957
0.9966
0.9948
0.9941
0.9947
0.9936
0.9945
0.9958
0.9972
0.999
0.9998
1
1
1
1
1
1
1
1
1
1
1
1
1
1
1
1
1
1
1
1
1
1
1
1
1
1
1
1
1
1
1
1
1
1
1
1.275e-06
1.101e-06
1.423e-06
1.85e-06
4.781e-06
6.865e-06
2.126e-06
1.411e-06
1.076e-06
2.659e-06
7.62e-06
4.17e-05
5.512e-05
7.917e-05
7.465e-05
8.729e-05
9.575e-05
9.202e-05
7.101e-05
6.48e-05
0.0001185
0.0002503
0.0005463
0.000707
0.000903
0.0009285
0.002839
0.003359
0.005788
0.008371
0.01138
0.008844
0.00715
0.003437
0.001329
0.0005481
0.000421
0.0008836
0.0003682
0.0001185
1.251e-05
1.066e-06
6.6e-08
4.394e-08
2.335e-08
1.156e-07
1.499e-06
3.34e-05
4.422e-05
1.632e-05
6.979e-07
1.994e-07
5.072e-07
4.681e-06
2.729e-05
4.337e-05
3.578e-05
2.839e-05
1.86e-05
1.442e-05
9.583e-06
7.815e-06
1.794e-05
0.0001729
0.003053
0.08469
0.8294
0.981
0.9972
0.9997
1
1
1
1
1
1
1
1
1
1
1
1
1
1
1
1
1
1
1
1
1
1
1
1
1
1
1
1
1
1
1
1
1
1
1
1
1
1
1
1
1
1
1
1
1
1
1
1
1
1
1
1
1
1
1
1
1
1
1
1
1
1
1
1
1
1
1
1
1
1
1
1
1
1
1
1
1
1
1
1
1
1
1
1
1
1
1
1
1
1
2.878e-06
2.36e-06
3.782e-06
2.032e-06
3.482e-06
2.803e-06
1.802e-06
3.884e-06
8.974e-06
8.167e-06
1.151e-05
2.313e-05
3.625e-05
5.084e-05
5.996e-05
3.052e-05
7.45e-06
2.15e-06
9.731e-07
8.246e-07
2.798e-06
1.35e-05
7.045e-05
0.0001877
0.0003507
0.0004117
0.0009198
0.0009507
0.0013
0.001525
0.002264
0.003594
0.006134
0.004269
0.00151
0.0004731
0.0002668
0.0006107
0.0006035
0.0006011
0.0002214
4.559e-05
6.244e-06
4.842e-06
2.737e-06
1.382e-05
7.329e-05
0.0006953
0.001061
0.000606
7.518e-05
1.831e-05
1.535e-05
2.365e-05
4.346e-05
2.349e-05
1.358e-05
8.807e-06
9.675e-06
1.781e-05
6.475e-05
0.0002786
0.003178
0.09735
0.8471
0.9812
0.9983
0.9999
1
1
1
1
1
1
1
1
1
1
1
1
1
1
1
1
1
1
1
1
1
1
1
1
1
1
1
1
1
1
1
1
1
1
1
1
1
1
1
1
1
1
1
1
1
1
1
1
1
1
1
1
1
1
1
1
1
1
1
1
1
1
1
1
1
1
1
1
1
1
1
1
1
1
1
1
1
1
1
1
1
1
1
1
1
1
1
1
1
1
1
1
8.28e-06
7.613e-06
1.554e-05
3.814e-06
2.931e-06
2.097e-06
3.048e-06
1.459e-05
4.341e-05
2.165e-05
1.329e-05
9.273e-06
7.502e-06
3.07e-05
2.135e-05
2.627e-06
3.336e-07
4.697e-08
1.819e-08
1.574e-08
1.078e-07
1.787e-06
2.208e-05
0.000123
0.0004419
0.0004603
0.0007964
0.000956
0.0008987
0.0009229
0.001555
0.003648
0.008661
0.008946
0.003199
0.0008037
0.0004467
0.0007622
0.001166
0.002128
0.00234
0.001147
0.0004112
0.0004292
0.0002685
0.0002843
0.0004224
0.001234
0.002798
0.004562
0.002651
0.0008367
0.0004364
0.0001402
9.161e-05
2.677e-05
1.767e-05
1.845e-05
8.449e-05
0.0003309
0.006411
0.1016
0.8171
0.979
0.9984
0.9998
1
1
1
1
1
1
1
1
1
1
1
1
1
1
1
1
1
1
1
1
1
1
1
1
1
1
1
1
1
1
1
1
1
1
1
1
1
1
1
1
1
1
1
1
1
1
1
1
1
1
1
1
1
1
1
1
1
1
1
1
1
1
1
1
1
1
1
1
1
1
1
1
1
1
1
1
1
1
1
1
1
1
1
1
1
1
1
1
1
1
1
1
1
1
1.685e-05
1.815e-05
6.73e-05
1.484e-05
3.31e-06
1.568e-06
4.17e-06
2.176e-05
6.924e-05
3.757e-05
1.222e-05
6.894e-06
9.186e-06
5.444e-05
8.915e-06
3.489e-07
3.662e-08
5.889e-09
4.16e-09
4.008e-09
3.883e-08
7.787e-07
1.332e-05
0.0001176
0.0009356
0.0007256
0.001373
0.001533
0.0008785
0.000624
0.0007521
0.002026
0.005767
0.007389
0.00345
0.001404
0.001328
0.001791
0.003303
0.005037
0.006676
0.005738
0.004913
0.003634
0.001949
0.000922
0.0006859
0.001114
0.002686
0.004714
0.002968
0.001067
0.0005221
0.0001734
0.0001454
8.345e-05
0.0001348
0.0005026
0.005891
0.09367
0.8272
0.9768
0.9984
0.9999
1
1
1
1
1
1
1
1
1
1
1
1
1
1
1
1
1
1
1
1
1
1
1
1
1
1
1
1
1
1
1
1
1
1
1
1
1
1
1
1
1
1
1
1
1
1
1
1
1
1
1
1
1
1
1
1
1
1
1
1
1
1
1
1
1
1
1
1
1
1
1
1
1
1
1
1
1
1
1
1
1
1
1
1
1
1
1
1
1
1
1
1
1
1
1
1
2.575e-05
3.467e-05
9.862e-05
2.607e-05
4.256e-06
4.867e-06
1.18e-05
7.121e-05
0.0001065
4.733e-05
1.047e-05
4.718e-06
6.865e-06
2.882e-05
1.37e-06
7.957e-08
1.921e-08
9.726e-09
1.549e-08
1.723e-08
1.126e-07
9.832e-07
1.799e-05
0.0001322
0.001163
0.0009388
0.001627
0.002118
0.0016
0.001396
0.001372
0.002545
0.006196
0.007274
0.003884
0.002425
0.003231
0.003983
0.005189
0.005468
0.007597
0.009223
0.01707
0.0153
0.008151
0.002415
0.0008251
0.0005467
0.0008973
0.001704
0.001351
0.0008633
0.0006996
0.0004193
0.0005027
0.001343
0.008442
0.0709
0.7896
0.9766
0.9978
0.9998
1
1
1
1
1
1
1
1
1
1
1
1
1
1
1
1
1
1
1
1
1
1
1
1
1
1
1
1
1
1
1
1
1
1
1
1
1
1
1
1
1
1
1
1
1
1
1
1
1
1
1
1
1
1
1
1
1
1
1
1
1
1
1
1
1
1
1
1
1
1
1
1
1
1
1
1
1
1
1
1
1
1
1
1
1
1
1
1
1
1
1
1
1
1
1
1
1
1
1.983e-05
3.371e-05
6.597e-05
2.049e-05
2.951e-06
7.461e-06
3.298e-05
0.0002904
0.0002922
0.0001041
2.086e-05
6.525e-06
4.764e-06
1.048e-05
4.965e-07
5.607e-08
7.632e-08
1.73e-07
4.543e-07
5.11e-07
1.716e-06
6.373e-06
8.786e-05
0.0005175
0.003414
0.002541
0.003617
0.003549
0.002501
0.00167
0.001763
0.003107
0.007608
0.009963
0.006308
0.004828
0.007557
0.009956
0.009138
0.004981
0.003673
0.003181
0.006302
0.007823
0.005566
0.002286
0.001186
0.0003672
0.0002297
0.0002934
0.0002453
0.0003401
0.0008971
0.001647
0.004695
0.03945
0.6404
0.9534
0.9969
0.9998
1
1
1
1
1
1
1
1
1
1
1
1
1
1
1
1
1
1
1
1
1
1
1
1
1
1
1
1
1
1
1
1
1
1
1
1
1
1
1
1
1
1
1
1
1
1
1
1
1
1
1
1
1
1
1
1
1
1
1
1
1
1
1
1
1
1
1
1
1
1
1
1
1
1
1
1
1
1
1
1
1
1
1
1
1
1
1
1
1
1
1
1
1
1
1
1
1
1
1
1
2.865e-05
3.512e-05
4.963e-05
2.133e-05
3.996e-06
2.399e-05
9.569e-05
0.0005649
0.000498
0.0002474
6.21e-05
2.446e-05
1.252e-05
1.357e-05
1.157e-06
3.6e-07
1.565e-06
6.003e-06
1.6e-05
1.629e-05
3.673e-05
6.96e-05
0.0002971
0.001131
0.003405
0.003095
0.003366
0.003622
0.003009
0.002187
0.002294
0.004313
0.0116
0.01783
0.01229
0.008155
0.008428
0.007131
0.004621
0.001996
0.0008453
0.0006499
0.001059
0.002299
0.003636
0.00339
0.002521
0.0005817
0.0002533
0.0001582
0.0002011
0.0003801
0.002973
0.0113
0.2127
0.9027
0.992
0.9994
1
1
1
1
1
1
1
1
1
1
1
1
1
1
1
1
1
1
1
1
1
1
1
1
1
1
1
1
1
1
1
1
1
1
1
1
1
1
1
1
1
1
1
1
1
1
1
1
1
1
1
1
1
1
1
1
1
1
1
1
1
1
1
1
1
1
1
1
1
1
1
1
1
1
1
1
1
1
1
1
1
1
1
1
1
1
1
1
1
1
1
1
1
1
1
1
1
1
1
1
1
1
6.16e-05
6.302e-05
8.374e-05
2.611e-05
7.249e-06
3.548e-05
8.227e-05
0.0004352
0.0004743
0.0003664
0.0001003
8.497e-05
6.52e-05
5.848e-05
1.117e-05
5.687e-06
1.734e-05
4.02e-05
7.933e-05
0.0001587
0.0003004
0.0003863
0.0007246
0.001027
0.001099
0.001591
0.00304
0.002489
0.001885
0.001194
0.0008272
0.001347
0.00514
0.01245
0.01262
0.008672
0.006698
0.005834
0.003977
0.002089
0.0007043
0.0003588
0.0003689
0.0006529
0.001228
0.002024
0.002671
0.0008499
0.000679
0.0004242
0.0008854
0.002367
0.05343
0.6747
0.9745
0.9987
0.9999
1
1
1
1
1
1
1
1
1
1
1
1
1
1
1
1
1
1
1
1
1
1
1
1
1
1
1
1
1
1
1
1
1
1
1
1
1
1
1
1
1
1
1
1
1
1
1
1
1
1
1
1
1
1
1
1
1
1
1
1
1
1
1
1
1
1
1
1
1
1
1
1
1
1
1
1
1
1
1
1
1
1
1
1
1
1
1
1
1
1
1
1
1
1
1
1
1
1
1
1
1
1
1
0.0001378
0.0001195
0.0001326
3.136e-05
1.398e-05
3.546e-05
3.489e-05
0.00018
0.0003411
0.0004085
0.0001618
0.0003067
0.0001894
0.0002128
9.968e-05
0.000103
0.0001818
0.0002065
0.0001524
0.0002801
0.0006535
0.0007034
0.001023
0.0008375
0.0006255
0.001167
0.003987
0.003924
0.002728
0.001639
0.0007212
0.0007833
0.002045
0.00692
0.01291
0.01324
0.01144
0.008359
0.005376
0.003325
0.00137
0.0005419
0.0003496
0.0004285
0.0004656
0.0009271
0.001936
0.001458
0.003038
0.006684
0.03924
0.5004
0.9591
0.9972
0.9999
1
1
1
1
1
1
1
1
1
1
1
1
1
1
1
1
1
1
1
1
1
1
1
1
1
1
1
0.9999
0.9997
0.9979
0.9964
0.9949
0.9935
0.9941
0.9938
0.9936
0.9951
0.9954
0.9959
0.9973
0.9988
0.9997
0.9999
1
1
1
1
1
1
1
1
1
1
1
1
1
1
1
1
1
1
1
1
1
1
1
1
1
1
1
1
1
1
1
1
1
1
1
1
1
1
1
1
1
1
1
1
1
1
1
1
1
1
1
1
1
1
1
1
1
1
1
1
1
1
0.0002593
0.0001947
0.0002466
4.867e-05
2.996e-05
1.556e-05
7.288e-06
3.712e-05
0.0001895
0.0004467
0.0005124
0.001002
0.0006331
0.0009011
0.0006825
0.0008599
0.0005949
0.0004349
0.0001683
0.0002636
0.0004418
0.0004687
0.0009019
0.0006981
0.00113
0.002536
0.009466
0.008824
0.006204
0.002866
0.001068
0.0006503
0.0009759
0.003738
0.01105
0.02076
0.0231
0.01286
0.007323
0.004947
0.002445
0.001214
0.0007657
0.0005494
0.0004886
0.000852
0.002355
0.00547
0.0264
0.1951
0.8488
0.9865
0.9996
1
1
1
1
1
1
1
1
1
1
1
1
1
1
1
1
1
1
1
1
1
1
1
1
1
1
0.9998
0.9985
0.9907
0.9682
0.8988
0.6379
0.2202
0.06719
0.03396
0.0205
0.01418
0.01463
0.01538
0.02815
0.09059
0.3872
0.709
0.92
0.9812
0.9954
0.9987
0.9997
0.9999
1
1
1
1
1
1
1
1
1
1
1
1
1
1
1
1
1
1
1
1
1
1
1
1
1
1
1
1
1
1
1
1
1
1
1
1
1
1
1
1
1
1
1
1
1
1
1
1
1
1
1
1
1
1
1
1
1
1
0.0002
0.0001643
0.0002123
4.515e-05
6.491e-05
1.632e-05
7.737e-06
2.307e-05
0.0001525
0.000287
0.0006389
0.001166
0.000979
0.001628
0.001708
0.002726
0.001868
0.0009976
0.0005099
0.0003321
0.00042
0.0004037
0.0006882
0.0006329
0.0009574
0.001517
0.005154
0.006803
0.007933
0.005589
0.001894
0.0005516
0.0003516
0.0007506
0.003042
0.01007
0.01632
0.00879
0.004759
0.003724
0.003481
0.002944
0.002439
0.001609
0.001463
0.003383
0.01406
0.09186
0.7262
0.9656
0.998
0.9999
1
1
1
1
1
1
1
1
1
1
1
1
1
1
1
1
1
1
1
1
1
1
1
1
0.9998
0.9982
0.9845
0.8991
0.648
0.1696
0.0413
0.01207
0.002988
0.0005706
0.0001952
0.0001665
0.0001056
8.818e-05
9.424e-05
0.0001007
0.0002581
0.001011
0.003223
0.007359
0.02091
0.05091
0.1745
0.582
0.8362
0.9572
0.9938
0.9991
0.9998
1
1
1
1
1
1
1
1
1
1
1
1
1
1
1
1
1
1
1
1
1
1
1
1
1
1
1
1
1
1
1
1
1
1
1
1
1
1
1
1
1
1
1
1
1
1
1
1
1
1
1
1
1
0.9997
0.9987
0.0001638
0.0001946
0.0003581
6.479e-05
0.0001115
1.403e-05
7.445e-06
1.376e-05
0.0002279
0.0003183
0.0008202
0.0008857
0.00101
0.00165
0.001468
0.001974
0.002143
0.001714
0.001189
0.0004385
0.0002135
0.0001304
0.0003125
0.0006919
0.001398
0.001261
0.002718
0.003965
0.004671
0.003515
0.001492
0.0003717
0.0001904
0.0004241
0.00177
0.007419
0.01474
0.01025
0.005378
0.004773
0.006284
0.006174
0.005652
0.004375
0.005515
0.01532
0.1315
0.7994
0.9844
0.9992
1
1
1
1
1
1
1
1
1
1
1
1
1
1
1
1
1
1
1
1
1
1
1
1
0.9992
0.9915
0.9309
0.6896
0.1123
0.01781
0.003118
0.0008254
0.0002312
7.613e-05
2.283e-05
7.721e-06
2.464e-06
3.101e-06
3.726e-06
3.27e-06
4.113e-06
5.61e-06
2.207e-05
0.000103
0.0002253
0.000309
0.0004587
0.0006396
0.001255
0.004763
0.01342
0.04455
0.193
0.733
0.9287
0.9893
0.9988
0.9998
1
1
1
1
1
1
1
1
1
1
1
1
1
1
1
1
1
1
1
1
1
1
1
1
1
1
1
1
1
1
1
1
1
1
1
1
1
1
1
1
1
1
1
1
1
1
0.9997
0.9982
0.9907
0.9551
0.8758
0.7902
0.0001983
0.0002866
0.0007392
0.0001116
0.0001392
1.437e-05
1.213e-05
2.659e-05
0.000234
0.0003139
0.000817
0.0009688
0.001811
0.002414
0.001114
0.001178
0.002105
0.003651
0.002417
0.0004497
6.694e-05
3.127e-05
0.0001076
0.0004936
0.001674
0.001549
0.001784
0.002755
0.003353
0.002299
0.001169
0.0003276
0.0001731
0.0004106
0.001273
0.004915
0.00838
0.005941
0.003691
0.004209
0.007553
0.009568
0.01099
0.0116
0.02669
0.3363
0.9159
0.9955
0.9999
1
1
1
1
1
1
1
1
1
1
1
1
1
1
1
1
1
1
1
1
1
1
0.9999
0.9991
0.987
0.8585
0.1959
0.01902
0.004618
0.0008294
0.0002479
9.067e-05
4.496e-05
1.248e-05
3.94e-06
9.223e-07
8.722e-07
6.205e-07
1.52e-06
2.203e-06
3.333e-06
4.138e-06
4.758e-06
9.788e-06
2.694e-05
3.28e-05
2.912e-05
2.538e-05
2.544e-05
3.296e-05
8.999e-05
0.0001915
0.0003893
0.001901
0.01322
0.03594
0.213
0.7616
0.926
0.9836
0.9979
0.9999
1
1
1
1
1
1
1
1
1
1
1
1
1
1
1
1
1
1
1
1
1
1
1
1
1
1
1
1
1
1
1
1
1
1
1
1
1
1
1
0.9998
0.998
0.9894
0.9389
0.714
0.2188
0.06935
0.024
0.01246
0.004258
0.0001202
0.0001828
0.000764
0.0001403
0.0001549
2.191e-05
1.848e-05
4.568e-05
0.0004322
0.0004498
0.0006205
0.0008498
0.002679
0.003848
0.0009398
0.0004737
0.0004959
0.001394
0.001477
0.0005013
4.695e-05
2.207e-05
5.226e-05
0.0003897
0.001602
0.001729
0.001616
0.002188
0.001839
0.00108
0.0005972
0.0003394
0.0002992
0.001094
0.002549
0.005063
0.004677
0.002823
0.001174
0.001002
0.001662
0.003213
0.009825
0.04565
0.5048
0.9516
0.9973
0.9999
1
1
1
1
1
1
1
1
1
1
1
1
1
1
1
1
1
1
1
1
1
0.9999
0.9982
0.9793
0.7266
0.08833
0.01032
0.002057
0.0006227
0.0002802
8.093e-05
5.107e-05
3.07e-05
2.47e-05
7.713e-06
5.3e-06
2.619e-06
3.355e-06
3e-06
8.555e-06
1.359e-05
2.38e-05
2.524e-05
2.152e-05
3.074e-05
3.388e-05
2.526e-05
2.021e-05
1.534e-05
9.71e-06
5.837e-06
7.412e-06
7.183e-06
8.729e-06
3.226e-05
0.0001379
0.0003723
0.001909
0.01787
0.07138
0.4813
0.9559
0.9986
1
1
1
1
1
1
1
1
1
1
1
1
1
1
1
1
1
1
1
1
1
1
1
1
1
1
1
1
1
1
1
1
1
1
0.9999
0.9994
0.9972
0.9887
0.9464
0.8008
0.2441
0.05662
0.01261
0.004032
0.001122
0.0003373
0.0001125
4.256e-05
3.865e-06
4.425e-05
6.896e-05
0.000483
0.000135
0.0001523
6.017e-05
5.155e-05
0.0001136
0.001302
0.0008121
0.000502
0.0008455
0.003218
0.005035
0.001227
0.0004149
0.0002815