/*--------------------------------*- C++ -*----------------------------------*\
| =========                 |                                                 |
| \\      /  F ield         | OpenFOAM: The Open Source CFD Toolbox           |
|  \\    /   O peration     | Version:  5.x                                   |
|   \\  /    A nd           | Web:      www.OpenFOAM.org                      |
|    \\/     M anipulation  |                                                 |
\*---------------------------------------------------------------------------*/
FoamFile
{
    version     2.0;
    format      ascii;
    class       volScalarField;
    location    "55";
    object      gamma;
}
// * * * * * * * * * * * * * * * * * * * * * * * * * * * * * * * * * * * * * //

dimensions      [0 0 0 0 0 0 0];

internalField   nonuniform List<scalar> 
86400
(
0.00579
0.005126
0.00486
0.004762
0.005371
0.006573
0.008086
0.01024
0.01427
0.02031
0.02973
0.04251
0.06072
0.07834
0.09711
0.1075
0.1109
0.1028
0.09786
0.09619
0.09726
0.09504
0.09122
0.08396
0.0805
0.08451
0.08471
0.08364
0.07835
0.07402
0.06979
0.06867
0.06807
0.0678
0.0681
0.06902
0.06415
0.0569
0.04756
0.0424
0.04004
0.0416
0.0419
0.04073
0.04141
0.04322
0.04731
0.04974
0.05081
0.04847
0.04715
0.04645
0.04599
0.04524
0.04379
0.04367
0.04397
0.04491
0.04612
0.04759
0.0471
0.04753
0.04568
0.04565
0.04848
0.05328
0.05781
0.06158
0.06021
0.05816
0.0588
0.06077
0.06234
0.06344
0.06632
0.07023
0.07341
0.08111
0.09024
0.09956
0.1071
0.1122
0.1116
0.1131
0.1164
0.1178
0.119
0.1196
0.1202
0.1201
0.1184
0.1237
0.1331
0.1489
0.1611
0.1693
0.1676
0.1675
0.1682
0.1696
0.171
0.172
0.173
0.1734
0.1723
0.1783
0.1921
0.2145
0.2352
0.2511
0.2545
0.2535
0.2527
0.252
0.2514
0.251
0.251
0.2512
0.2514
0.2518
0.2523
0.2527
0.2531
0.2533
0.2534
0.2536
0.2533
0.2526
0.2518
0.2512
0.2512
0.2524
0.2529
0.2531
0.253
0.2529
0.2528
0.2525
0.244
0.2319
0.2201
0.2121
0.2091
0.2092
0.2088
0.2067
0.2069
0.2073
0.2072
0.2042
0.1982
0.1924
0.1899
0.1822
0.1816
0.2003
0.259
0.4054
0.8755
0.9794
0.005343
0.004702
0.004501
0.004483
0.005425
0.007368
0.01018
0.01459
0.02227
0.03332
0.0509
0.07028
0.09063
0.1056
0.1233
0.1373
0.1523
0.1536
0.1634
0.1768
0.1956
0.2078
0.2077
0.186
0.1717
0.1625
0.1559
0.1485
0.14
0.1316
0.1213
0.1139
0.1075
0.1026
0.09983
0.09973
0.09432
0.0866
0.0778
0.07187
0.06864
0.06948
0.0699
0.06818
0.06788
0.06892
0.07076
0.0721
0.07255
0.07027
0.06926
0.06906
0.06921
0.06879
0.06689
0.06625
0.06606
0.06775
0.06945
0.07189
0.07165
0.07331
0.07123
0.07207
0.07711
0.08789
0.09518
0.1013
0.09965
0.09778
0.09991
0.1045
0.1091
0.1124
0.1174
0.1239
0.1307
0.1406
0.1513
0.1572
0.1641
0.1698
0.1717
0.1752
0.1805
0.1829
0.185
0.1858
0.1866
0.1869
0.1854
0.1915
0.2016
0.2143
0.2256
0.233
0.2316
0.2317
0.2326
0.2336
0.2345
0.2352
0.2362
0.2358
0.2336
0.2368
0.2477
0.2638
0.283
0.2971
0.3009
0.2999
0.2992
0.2987
0.2983
0.2982
0.2985
0.299
0.2997
0.3005
0.3014
0.3023
0.3031
0.3036
0.3041
0.3047
0.3044
0.3038
0.303
0.3026
0.3028
0.3045
0.3052
0.3057
0.3057
0.3052
0.3045
0.3036
0.2961
0.2857
0.2777
0.2715
0.269
0.2699
0.2699
0.2683
0.2687
0.27
0.2716
0.2701
0.2653
0.2619
0.2641
0.2655
0.2802
0.3305
0.4454
0.5922
0.8086
0.9197
0.005362
0.004769
0.004652
0.004917
0.006588
0.01001
0.01545
0.02498
0.04041
0.06156
0.0904
0.1174
0.1488
0.1755
0.2055
0.2278
0.2524
0.2633
0.314
0.3747
0.4373
0.4639
0.4616
0.4236
0.3965
0.3709
0.3406
0.3077
0.2799
0.2571
0.2363
0.2187
0.2018
0.188
0.1783
0.1745
0.1662
0.1558
0.1453
0.1388
0.1353
0.1357
0.1337
0.1303
0.1283
0.1289
0.1299
0.1306
0.1305
0.1283
0.1264
0.1247
0.1231
0.121
0.1174
0.1163
0.1156
0.1167
0.1195
0.1241
0.1261
0.1316
0.1322
0.1392
0.1488
0.1609
0.1701
0.1791
0.1772
0.1773
0.1836
0.1955
0.2091
0.2175
0.226
0.2335
0.2383
0.2457
0.2579
0.2621
0.2681
0.273
0.2756
0.2815
0.2898
0.2939
0.2984
0.3015
0.3042
0.3055
0.3034
0.3068
0.3143
0.3249
0.3343
0.3405
0.3399
0.3411
0.3436
0.3452
0.3467
0.3474
0.3496
0.3498
0.346
0.3441
0.3493
0.359
0.3729
0.3839
0.3873
0.3861
0.3854
0.3848
0.3848
0.3853
0.3861
0.387
0.3881
0.3894
0.3911
0.3928
0.3943
0.3955
0.3967
0.3981
0.3984
0.3983
0.3978
0.3978
0.3985
0.4009
0.4021
0.4029
0.4029
0.4026
0.4018
0.401
0.3957
0.3887
0.3834
0.3797
0.379
0.3807
0.3809
0.3801
0.3814
0.3849
0.3903
0.3942
0.3966
0.4022
0.4186
0.4387
0.4797
0.5517
0.6444
0.7435
0.8308
0.8821
0.005717
0.00535
0.00561
0.006707
0.01034
0.01781
0.0305
0.05347
0.08804
0.1325
0.1827
0.2302
0.302
0.3488
0.3989
0.4245
0.4509
0.4773
0.5643
0.6338
0.6869
0.7113
0.7066
0.6802
0.6557
0.6249
0.5907
0.5574
0.5282
0.5012
0.4769
0.449
0.4137
0.3829
0.3569
0.3431
0.3303
0.3223
0.3192
0.324
0.3297
0.3364
0.3365
0.3325
0.3238
0.3182
0.3115
0.3049
0.2994
0.2962
0.2882
0.2785
0.2687
0.26
0.2509
0.2486
0.2476
0.251
0.2586
0.2694
0.2787
0.295
0.3032
0.3172
0.3368
0.3598
0.3744
0.3918
0.3968
0.4098
0.432
0.4599
0.4849
0.4933
0.4927
0.4867
0.4822
0.48
0.4845
0.4826
0.4813
0.4825
0.4884
0.4964
0.5045
0.5103
0.5156
0.5194
0.5219
0.5235
0.5224
0.5207
0.5198
0.521
0.5212
0.522
0.5231
0.525
0.5272
0.5286
0.5299
0.5304
0.5308
0.5284
0.5219
0.5121
0.5055
0.5032
0.5045
0.5079
0.5099
0.5095
0.5096
0.51
0.5108
0.5119
0.5132
0.5144
0.5157
0.5173
0.5192
0.5212
0.523
0.5247
0.5264
0.5281
0.5289
0.5291
0.529
0.5293
0.53
0.5323
0.5338
0.535
0.5361
0.5363
0.536
0.5353
0.5347
0.5347
0.5354
0.5369
0.5388
0.5405
0.5413
0.5429
0.5456
0.5511
0.5591
0.568
0.578
0.5923
0.6132
0.6396
0.6829
0.7406
0.8026
0.8603
0.9059
0.9322
0.007317
0.007637
0.008869
0.01211
0.02085
0.03859
0.06721
0.1186
0.1836
0.2503
0.3271
0.4191
0.544
0.6085
0.6413
0.6228
0.6036
0.6168
0.6996
0.766
0.8007
0.8134
0.7986
0.7772
0.7627
0.7501
0.7353
0.7183
0.7009
0.6796
0.6574
0.6301
0.5992
0.5704
0.5486
0.5336
0.5216
0.5278
0.5466
0.5784
0.6094
0.6303
0.6382
0.6417
0.6396
0.6394
0.6383
0.6357
0.6307
0.6236
0.6084
0.5879
0.5643
0.5451
0.5302
0.5239
0.5207
0.5221
0.5283
0.5375
0.5498
0.5655
0.5791
0.5879
0.5935
0.5948
0.596
0.5985
0.6006
0.6086
0.6194
0.6339
0.6482
0.65
0.6409
0.6269
0.6152
0.6099
0.6135
0.6173
0.6178
0.6188
0.6215
0.6256
0.6298
0.634
0.6374
0.6399
0.6422
0.6436
0.6425
0.6415
0.6412
0.6425
0.6436
0.6456
0.6472
0.6491
0.6512
0.6525
0.6533
0.6524
0.6494
0.6439
0.6357
0.6265
0.6189
0.6148
0.613
0.6134
0.6135
0.6135
0.6139
0.6149
0.6161
0.6178
0.6194
0.621
0.6225
0.6242
0.626
0.6279
0.6298
0.6316
0.6333
0.635
0.6358
0.6362
0.6364
0.6371
0.6382
0.6402
0.6417
0.6429
0.6439
0.6445
0.6451
0.6457
0.6465
0.6478
0.6495
0.6515
0.6535
0.6554
0.6572
0.6601
0.664
0.6707
0.68
0.6916
0.7054
0.7224
0.7429
0.7692
0.806
0.8463
0.8846
0.9152
0.9381
0.9523
0.009938
0.01178
0.01534
0.02396
0.0447
0.07998
0.1298
0.2057
0.2816
0.3398
0.4409
0.5617
0.6914
0.7577
0.773
0.7376
0.6926
0.6854
0.7444
0.8043
0.8352
0.8471
0.8344
0.8194
0.8035
0.7925
0.7808
0.7706
0.7587
0.7404
0.7203
0.6947
0.6661
0.6382
0.6188
0.6026
0.6019
0.6354
0.6877
0.7471
0.7942
0.8234
0.8366
0.8429
0.8431
0.8409
0.8368
0.8299
0.8182
0.8
0.7711
0.7326
0.6942
0.6639
0.6471
0.6453
0.6506
0.6563
0.6649
0.6738
0.6837
0.6915
0.6965
0.6989
0.6997
0.6995
0.7023
0.7023
0.7018
0.704
0.7074
0.7151
0.7228
0.7217
0.7105
0.7008
0.6922
0.6909
0.6955
0.7006
0.7024
0.7041
0.7057
0.7088
0.7109
0.7133
0.7153
0.717
0.7181
0.719
0.7193
0.7197
0.7211
0.7233
0.7249
0.7265
0.7276
0.7287
0.7302
0.7299
0.7284
0.7244
0.7181
0.7108
0.7027
0.6954
0.6904
0.6878
0.6863
0.6865
0.6866
0.6871
0.6879
0.6892
0.6907
0.6925
0.6942
0.6958
0.6974
0.6989
0.7005
0.7023
0.704
0.7057
0.7073
0.7087
0.7097
0.7105
0.7112
0.7124
0.7137
0.7154
0.717
0.7184
0.7201
0.7216
0.7232
0.7243
0.7255
0.7268
0.7288
0.7308
0.7332
0.7357
0.7384
0.7421
0.7472
0.7542
0.7631
0.7741
0.7869
0.8013
0.8191
0.8415
0.8692
0.8968
0.9206
0.938
0.9506
0.9595
0.01396
0.01803
0.02536
0.0413
0.075
0.1236
0.1891
0.2718
0.3449
0.4029
0.5231
0.6571
0.7807
0.8369
0.8459
0.8077
0.7473
0.7149
0.742
0.791
0.8207
0.83
0.8214
0.8194
0.8179
0.8186
0.815
0.8068
0.7999
0.7885
0.774
0.7523
0.7294
0.7071
0.6889
0.6744
0.6896
0.7459
0.8163
0.8776
0.9152
0.9342
0.9421
0.9449
0.944
0.9411
0.9365
0.9292
0.9171
0.8975
0.8658
0.8194
0.7672
0.7202
0.6914
0.6839
0.6966
0.7137
0.7338
0.7501
0.759
0.7596
0.7589
0.7554
0.7515
0.7498
0.7498
0.7474
0.7465
0.7447
0.7451
0.7489
0.7523
0.7511
0.7444
0.7393
0.7358
0.7386
0.7432
0.7481
0.7497
0.7512
0.7528
0.7553
0.7578
0.7606
0.7627
0.7643
0.7651
0.7656
0.7656
0.7656
0.7665
0.7681
0.7695
0.7712
0.773
0.7752
0.7761
0.7738
0.7692
0.7619
0.7535
0.746
0.7408
0.7364
0.7344
0.7337
0.7334
0.7338
0.7342
0.7348
0.7357
0.7369
0.7383
0.7399
0.7415
0.7431
0.7446
0.7461
0.7476
0.7491
0.7506
0.7521
0.7535
0.7547
0.7557
0.7566
0.7576
0.7588
0.7601
0.7618
0.7635
0.765
0.7667
0.7685
0.7702
0.7718
0.7737
0.7754
0.7775
0.7798
0.7826
0.7856
0.7892
0.7935
0.7989
0.8056
0.8135
0.8225
0.8325
0.8452
0.8616
0.8812
0.9028
0.9221
0.9366
0.9469
0.9543
0.9592
0.022
0.02898
0.04081
0.06418
0.1077
0.1624
0.2361
0.3148
0.4014
0.4913
0.6264
0.7493
0.8387
0.8763
0.8796
0.849
0.791
0.7345
0.7087
0.7165
0.7329
0.7461
0.7578
0.7832
0.807
0.8281
0.8402
0.8407
0.8381
0.835
0.8284
0.818
0.8011
0.7811
0.7606
0.7484
0.7745
0.8388
0.9034
0.9469
0.9691
0.9785
0.9821
0.9832
0.9825
0.9806
0.9775
0.9727
0.9644
0.9499
0.9248
0.8842
0.8323
0.7801
0.7459
0.7308
0.7409
0.7633
0.7911
0.8098
0.815
0.8062
0.7927
0.7802
0.7738
0.7719
0.7717
0.7687
0.7668
0.7656
0.7646
0.7658
0.7682
0.7678
0.7653
0.765
0.7666
0.7712
0.7753
0.7793
0.7809
0.7823
0.7839
0.7863
0.7889
0.7915
0.7933
0.7943
0.7951
0.7956
0.7967
0.7982
0.8003
0.8024
0.8045
0.8065
0.8069
0.8069
0.8044
0.7986
0.7907
0.7814
0.7727
0.7668
0.764
0.7621
0.7623
0.7632
0.7639
0.7646
0.7653
0.7662
0.7671
0.7683
0.7696
0.771
0.7725
0.7741
0.7756
0.777
0.7784
0.7798
0.7812
0.7826
0.7839
0.7851
0.7864
0.7875
0.7887
0.7902
0.7919
0.7938
0.7959
0.7977
0.7993
0.801
0.8027
0.8045
0.8064
0.8084
0.8108
0.8134
0.8164
0.8198
0.8237
0.8283
0.8336
0.8397
0.8463
0.8534
0.8627
0.8753
0.891
0.9079
0.924
0.9361
0.9448
0.9511
0.955
0.9568
0.03611
0.04672
0.06099
0.08924
0.1381
0.1989
0.2777
0.3784
0.4904
0.6004
0.7237
0.8172
0.8702
0.8926
0.8932
0.8665
0.8234
0.7636
0.717
0.6999
0.6924
0.6671
0.6661
0.7
0.7497
0.8033
0.835
0.848
0.854
0.8601
0.8607
0.8597
0.8492
0.8338
0.814
0.8038
0.8307
0.8908
0.9425
0.9725
0.9859
0.991
0.993
0.9934
0.993
0.9919
0.9899
0.9867
0.9811
0.9708
0.9521
0.9201
0.876
0.8279
0.7893
0.7674
0.7751
0.7973
0.826
0.8415
0.8424
0.8268
0.8077
0.7915
0.7841
0.7807
0.7795
0.7768
0.7768
0.7756
0.774
0.7738
0.776
0.7783
0.7812
0.785
0.789
0.7933
0.797
0.8003
0.8027
0.8046
0.8063
0.8087
0.8112
0.8136
0.8157
0.8173
0.8187
0.8196
0.8211
0.8223
0.8241
0.8262
0.8285
0.8293
0.8272
0.8238
0.8173
0.8086
0.799
0.7913
0.7848
0.7821
0.7818
0.782
0.7831
0.784
0.7848
0.7856
0.7863
0.7872
0.7881
0.7892
0.7904
0.7918
0.7932
0.7947
0.7961
0.7975
0.7988
0.8002
0.8016
0.803
0.8045
0.8059
0.8077
0.8096
0.8115
0.8136
0.8156
0.8178
0.82
0.822
0.8236
0.8252
0.8268
0.8288
0.8309
0.8333
0.8358
0.8386
0.8417
0.8452
0.8491
0.8534
0.8581
0.8633
0.8687
0.8742
0.8837
0.8967
0.9118
0.9265
0.9378
0.9451
0.9502
0.9541
0.9554
0.954
0.05618
0.06752
0.08427
0.1203
0.1771
0.259
0.3796
0.5121
0.6217
0.7206
0.8007
0.8518
0.8761
0.8849
0.8784
0.8519
0.8168
0.7629
0.7007
0.6628
0.6313
0.568
0.5338
0.5503
0.5944
0.6921
0.7589
0.7913
0.8133
0.8386
0.856
0.8689
0.8684
0.8579
0.8408
0.8352
0.8644
0.9154
0.9569
0.98
0.9901
0.994
0.9955
0.9958
0.9955
0.9945
0.9929
0.99
0.9851
0.9759
0.9593
0.9312
0.8917
0.8478
0.8098
0.7867
0.7913
0.8097
0.8327
0.8464
0.8435
0.8224
0.8025
0.7854
0.7793
0.7771
0.7764
0.776
0.7788
0.7809
0.7833
0.7857
0.7885
0.7913
0.7951
0.7983
0.8015
0.8051
0.8083
0.8119
0.815
0.818
0.8201
0.8228
0.8253
0.8281
0.8308
0.8327
0.8345
0.8359
0.8377
0.8394
0.8416
0.8424
0.8427
0.8403
0.8346
0.8275
0.8184
0.8091
0.8015
0.7967
0.7933
0.7931
0.7941
0.7951
0.7961
0.797
0.7978
0.7988
0.7997
0.8008
0.8019
0.8031
0.8043
0.8056
0.807
0.8084
0.8098
0.8112
0.8126
0.8141
0.8156
0.8174
0.8195
0.8216
0.824
0.8264
0.8285
0.8307
0.833
0.8353
0.8375
0.8394
0.841
0.8427
0.8445
0.8467
0.8491
0.8516
0.8543
0.8572
0.8602
0.8636
0.8672
0.871
0.8752
0.8795
0.8839
0.8881
0.8982
0.9116
0.9263
0.9379
0.946
0.95
0.9531
0.955
0.9534
0.9483
0.07916
0.09193
0.1113
0.1555
0.2309
0.3741
0.536
0.662
0.749
0.8135
0.8481
0.8666
0.8674
0.8519
0.8152
0.7622
0.7149
0.6574
0.6251
0.6089
0.5675
0.4435
0.3162
0.2768
0.2852
0.4076
0.5522
0.6403
0.7012
0.7557
0.7967
0.8267
0.837
0.8339
0.8278
0.8325
0.8676
0.9163
0.9552
0.9778
0.9886
0.993
0.9948
0.9953
0.995
0.9938
0.9917
0.9881
0.982
0.9713
0.9534
0.9256
0.8889
0.8492
0.8159
0.7968
0.7988
0.8119
0.8292
0.832
0.8249
0.8063
0.79
0.7778
0.7751
0.7749
0.7768
0.7789
0.7828
0.7859
0.7885
0.7901
0.7922
0.7946
0.7976
0.8008
0.8042
0.8082
0.8126
0.818
0.8225
0.8264
0.8292
0.832
0.8348
0.8378
0.8407
0.8429
0.8449
0.8465
0.8484
0.8503
0.8512
0.8491
0.8457
0.8394
0.8305
0.821
0.8128
0.8053
0.8012
0.7999
0.7994
0.8003
0.8012
0.8021
0.803
0.8039
0.8049
0.8059
0.807
0.8082
0.8095
0.8109
0.8123
0.8137
0.8152
0.8167
0.8182
0.8198
0.8216
0.8236
0.8257
0.8282
0.8307
0.8331
0.8358
0.8383
0.8407
0.843
0.8454
0.8475
0.8496
0.8515
0.8531
0.8549
0.8571
0.8595
0.8621
0.8648
0.8675
0.8703
0.8733
0.8764
0.8797
0.8832
0.8867
0.8903
0.8939
0.8972
0.9064
0.9194
0.933
0.9431
0.9499
0.9519
0.9529
0.9523
0.9473
0.9381
0.09738
0.1125
0.1412
0.1991
0.3072
0.5004
0.6571
0.771
0.8343
0.8654
0.8696
0.8628
0.8334
0.7682
0.6575
0.5184
0.4059
0.3429
0.3082
0.2941
0.2696
0.2129
0.1862
0.1584
0.15
0.1868
0.2692
0.3683
0.4741
0.5695
0.6512
0.7186
0.7573
0.7743
0.7961
0.8202
0.8625
0.9104
0.9483
0.9717
0.9843
0.99
0.9925
0.9932
0.9927
0.9911
0.9878
0.9823
0.9729
0.9573
0.9331
0.8984
0.8591
0.823
0.799
0.789
0.7907
0.7944
0.7966
0.7923
0.7829
0.7708
0.7641
0.7621
0.7659
0.7697
0.7737
0.7768
0.7795
0.7817
0.7837
0.7852
0.7875
0.7906
0.7941
0.7979
0.8021
0.8074
0.8134
0.8201
0.8255
0.8301
0.8329
0.8357
0.8384
0.8415
0.8444
0.8468
0.8488
0.8508
0.853
0.8542
0.8528
0.8472
0.8394
0.8284
0.818
0.8094
0.8036
0.7994
0.7988
0.7999
0.8009
0.8019
0.8028
0.8038
0.8048
0.8059
0.8071
0.8083
0.8097
0.8111
0.8126
0.8141
0.8156
0.8172
0.8189
0.8208
0.8229
0.8251
0.8275
0.8302
0.8327
0.8356
0.8384
0.8411
0.8438
0.8464
0.8488
0.8512
0.8535
0.8555
0.8574
0.8592
0.8612
0.8634
0.866
0.8687
0.8714
0.874
0.8767
0.8794
0.8822
0.8851
0.8881
0.8911
0.8942
0.8972
0.9001
0.9027
0.9102
0.921
0.9324
0.9411
0.9468
0.9479
0.9479
0.945
0.9369
0.9236
0.1019
0.1245
0.1676
0.2497
0.392
0.5678
0.7177
0.8167
0.8684
0.887
0.875
0.836
0.7455
0.5664
0.2693
0.1147
0.07038
0.05606
0.05247
0.05686
0.07008
0.07994
0.09777
0.1129
0.1191
0.1381
0.179
0.233
0.3013
0.4051
0.4812
0.5762
0.653
0.7127
0.7704
0.8176
0.8643
0.9081
0.9422
0.965
0.9787
0.9856
0.9888
0.9896
0.9888
0.9859
0.9802
0.9703
0.9541
0.9288
0.8945
0.8503
0.8078
0.7762
0.7627
0.7606
0.7641
0.7601
0.7533
0.7456
0.7384
0.7369
0.7425
0.7485
0.7536
0.7578
0.7613
0.7648
0.7677
0.7704
0.7727
0.775
0.7779
0.7815
0.785
0.7892
0.7942
0.8015
0.8096
0.8174
0.8234
0.8275
0.8304
0.8335
0.8368
0.8405
0.844
0.8466
0.8486
0.8492
0.8491
0.847
0.8421
0.8329
0.8217
0.8101
0.8016
0.7968
0.7952
0.7946
0.7957
0.7968
0.7979
0.799
0.8001
0.8012
0.8024
0.8038
0.8052
0.8068
0.8084
0.81
0.8117
0.8135
0.8155
0.8177
0.82
0.8227
0.8254
0.828
0.831
0.8342
0.8372
0.8403
0.8433
0.8459
0.8485
0.8512
0.8538
0.8562
0.8584
0.8603
0.8622
0.8643
0.8667
0.8694
0.8722
0.8749
0.8775
0.8801
0.8827
0.8853
0.888
0.8907
0.8934
0.8961
0.8988
0.9013
0.9036
0.9056
0.9103
0.918
0.9272
0.9361
0.9424
0.9436
0.9419
0.9345
0.9229
0.9075
0.0989
0.13
0.189
0.3033
0.4584
0.5955
0.7186
0.8142
0.8638
0.8753
0.8441
0.7552
0.5409
0.1881
0.05341
0.01815
0.009015
0.005746
0.005221
0.006593
0.01193
0.02446
0.05
0.09357
0.134
0.1697
0.2002
0.25
0.2713
0.3143
0.3555
0.4475
0.5364
0.6529
0.7452
0.8136
0.8617
0.9025
0.9344
0.9564
0.9706
0.9781
0.9814
0.9815
0.9794
0.9737
0.9639
0.9471
0.9212
0.8828
0.8372
0.7861
0.7465
0.7241
0.7212
0.7233
0.7216
0.7138
0.7088
0.7051
0.7057
0.7131
0.7211
0.7283
0.7341
0.7385
0.7422
0.7463
0.7502
0.754
0.7572
0.7602
0.7633
0.767
0.7703
0.7747
0.7809
0.7902
0.8003
0.8095
0.8154
0.8198
0.8227
0.8262
0.8303
0.8343
0.8377
0.839
0.8392
0.8368
0.8339
0.8287
0.8213
0.8096
0.799
0.7897
0.7851
0.7846
0.7859
0.7871
0.7884
0.7896
0.7908
0.7921
0.7934
0.7949
0.7964
0.7981
0.7998
0.8017
0.8035
0.8055
0.8077
0.8102
0.8131
0.8163
0.8193
0.8225
0.8257
0.829
0.8324
0.8359
0.8391
0.8423
0.8452
0.8479
0.8506
0.8533
0.8559
0.8582
0.8605
0.8626
0.8649
0.8675
0.8704
0.8732
0.876
0.8786
0.8812
0.8837
0.8863
0.8889
0.8914
0.8939
0.8964
0.8988
0.9011
0.9032
0.905
0.9065
0.9088
0.9143
0.9226
0.931
0.9379
0.9399
0.9364
0.9259
0.911
0.8935
0.093
0.1335
0.2179
0.3999
0.5452
0.6373
0.7083
0.7756
0.8251
0.8359
0.7967
0.6589
0.2646
0.05244
0.01031
0.002578
0.000953
0.0006213
0.0007517
0.001497
0.004431
0.01453
0.03974
0.0876
0.1581
0.2301
0.2597
0.3358
0.3533
0.3597
0.3416
0.3888
0.4495
0.5803
0.686
0.7728
0.8266
0.8742
0.9103
0.9352
0.9512
0.9596
0.9626
0.9611
0.956
0.9448
0.928
0.9003
0.8633
0.8148
0.767
0.7208
0.6911
0.6786
0.679
0.6785
0.6735
0.6672
0.6657
0.6675
0.6748
0.6845
0.6944
0.7023
0.7082
0.7127
0.7172
0.7224
0.7278
0.7327
0.737
0.7407
0.7438
0.7472
0.7502
0.7543
0.7614
0.7721
0.7835
0.7939
0.8009
0.8062
0.8099
0.814
0.8185
0.8223
0.8243
0.823
0.82
0.8141
0.808
0.7997
0.7916
0.7825
0.7762
0.7716
0.7712
0.7726
0.7741
0.7755
0.7769
0.7783
0.7798
0.7814
0.7832
0.785
0.7869
0.7889
0.791
0.7934
0.796
0.7989
0.8021
0.8056
0.8092
0.8131
0.8169
0.8205
0.8242
0.8277
0.8314
0.8352
0.8386
0.8417
0.8447
0.8474
0.8502
0.8532
0.8561
0.8587
0.8611
0.8635
0.8662
0.8692
0.8722
0.8751
0.8778
0.8804
0.883
0.8855
0.888
0.8905
0.8929
0.8953
0.8975
0.8996
0.9016
0.9033
0.9046
0.9069
0.9095
0.9148
0.9226
0.9304
0.937
0.9394
0.9356
0.9242
0.9088
0.8923
0.09073
0.146
0.2728
0.5191
0.6435
0.6935
0.7087
0.7331
0.7692
0.7901
0.7528
0.5546
0.12
0.01595
0.002143
0.0003929
0.0001498
0.0001272
0.0002422
0.0008571
0.004178
0.01905
0.05719
0.1198
0.2137
0.2945
0.3437
0.4116
0.4263
0.4145
0.3921
0.4125
0.4257
0.5177
0.6082
0.6922
0.7471
0.804
0.8495
0.8827
0.903
0.9127
0.9137
0.9067
0.8954
0.876
0.8518
0.8166
0.7755
0.7272
0.6892
0.6591
0.6441
0.6318
0.6274
0.6191
0.6117
0.6109
0.6167
0.6272
0.6393
0.6509
0.6617
0.6697
0.6758
0.6807
0.6864
0.6935
0.701
0.7076
0.713
0.717
0.7199
0.7226
0.725
0.7295
0.7368
0.7475
0.7591
0.7702
0.7798
0.7868
0.7918
0.7963
0.7993
0.8011
0.8004
0.7959
0.7896
0.7805
0.7723
0.7647
0.7593
0.7546
0.7532
0.7529
0.7546
0.7563
0.7579
0.7595
0.7613
0.7631
0.765
0.7671
0.7693
0.7715
0.7738
0.7765
0.7794
0.783
0.7869
0.7909
0.795
0.7993
0.8038
0.8081
0.8123
0.8163
0.8204
0.8244
0.8284
0.8322
0.8356
0.8388
0.842
0.8452
0.8485
0.8518
0.8549
0.8578
0.8604
0.8632
0.8662
0.8694
0.8724
0.8753
0.8779
0.8806
0.8832
0.8857
0.8882
0.8906
0.8929
0.895
0.8971
0.8989
0.9005
0.9017
0.9039
0.9085
0.9137
0.9203
0.9275
0.934
0.9383
0.9407
0.9389
0.9302
0.9166
0.8985
0.08939
0.1617
0.3358
0.6085
0.7249
0.7574
0.7365
0.7117
0.733
0.7644
0.74
0.5188
0.08133
0.005892
0.0005015
8.708e-05
4.463e-05
6.422e-05
0.0002352
0.001516
0.01006
0.04658
0.1118
0.173
0.2468
0.2947
0.3349
0.4058
0.4392
0.43
0.4328
0.4279
0.4007
0.4392
0.4821
0.5421
0.5949
0.6649
0.7193
0.7603
0.7837
0.7941
0.7923
0.7819
0.7672
0.7461
0.7235
0.688
0.6568
0.6257
0.6106
0.5992
0.5905
0.5724
0.5619
0.5525
0.5491
0.5572
0.57
0.5844
0.5986
0.6121
0.6234
0.6313
0.6378
0.6438
0.6512
0.6611
0.6703
0.6778
0.6834
0.6875
0.6904
0.6933
0.6962
0.7008
0.7078
0.7171
0.7279
0.7389
0.7494
0.7583
0.7639
0.768
0.7692
0.7686
0.765
0.7582
0.749
0.7402
0.7324
0.7281
0.7269
0.7271
0.7293
0.7313
0.7333
0.7353
0.7372
0.7393
0.7415
0.7439
0.7463
0.7488
0.7514
0.7544
0.7577
0.7618
0.7661
0.7711
0.7761
0.7813
0.7863
0.7913
0.7961
0.801
0.8057
0.8102
0.8147
0.8191
0.8233
0.8273
0.831
0.8347
0.8383
0.8419
0.8456
0.8493
0.8526
0.8557
0.8587
0.8618
0.8649
0.8682
0.8712
0.874
0.8767
0.8794
0.882
0.8845
0.8869
0.8892
0.8914
0.8934
0.8951
0.8966
0.8977
0.8999
0.9045
0.9122
0.9201
0.9285
0.9348
0.9394
0.9427
0.9453
0.9454
0.9374
0.9234
0.8991
0.08698
0.1749
0.3962
0.664
0.7646
0.7991
0.7742
0.7159
0.7342
0.7641
0.7495
0.4921
0.05685
0.002764
0.0002142
4.791e-05
4.336e-05
0.0001189
0.0007077
0.005607
0.03481
0.1245
0.2254
0.2665
0.3103
0.3233
0.3291
0.3742
0.406
0.3947
0.4208
0.4254
0.3937
0.3715
0.36
0.3709
0.3983
0.4546
0.5082
0.5521
0.5732
0.5824
0.5807
0.5751
0.5703
0.5673
0.5664
0.5528
0.5497
0.5432
0.5436
0.5397
0.5302
0.5079
0.4973
0.4929
0.498
0.5111
0.525
0.5382
0.5525
0.5671
0.5793
0.5885
0.5961
0.6043
0.6141
0.6261
0.6357
0.6432
0.6484
0.6526
0.6561
0.6605
0.6642
0.6689
0.6749
0.682
0.6907
0.7002
0.7102
0.7191
0.7254
0.7285
0.7279
0.7251
0.7192
0.712
0.7038
0.6981
0.6944
0.6947
0.697
0.6996
0.7022
0.7047
0.7072
0.7096
0.712
0.7146
0.7173
0.7201
0.723
0.7264
0.7301
0.7346
0.7395
0.7448
0.7497
0.7555
0.7608
0.7664
0.772
0.7775
0.7826
0.7877
0.7929
0.7986
0.8048
0.811
0.8165
0.8215
0.8256
0.8297
0.8338
0.838
0.842
0.8459
0.8493
0.8526
0.8558
0.8592
0.8624
0.8657
0.8687
0.8716
0.8743
0.877
0.8795
0.882
0.8843
0.8864
0.8884
0.8901
0.8916
0.8926
0.8948
0.8996
0.9076
0.9178
0.9275
0.9347
0.9395
0.9426
0.9429
0.9426
0.9413
0.9316
0.9149
0.8861
0.0912
0.1942
0.4401
0.6927
0.784
0.8194
0.7956
0.7298
0.7338
0.751
0.7351
0.4421
0.04474
0.002136
0.0002048
7.463e-05
0.000131
0.0005823
0.003821
0.02568
0.1098
0.2575
0.3529
0.3625
0.3641
0.3469
0.3305
0.3526
0.3795
0.3831
0.4152
0.4212
0.3843
0.3305
0.2869
0.2598
0.2548
0.2755
0.3002
0.3216
0.3321
0.3435
0.3566
0.3758
0.3991
0.4148
0.4209
0.4213
0.4373
0.4521
0.4677
0.4713
0.4596
0.4408
0.439
0.4444
0.4557
0.4694
0.4823
0.4934
0.5062
0.52
0.5319
0.5418
0.5513
0.5619
0.5733
0.5863
0.5953
0.6016
0.6058
0.6108
0.6167
0.6229
0.6277
0.6326
0.6374
0.6426
0.6487
0.6562
0.6646
0.6721
0.677
0.6804
0.6794
0.6764
0.6713
0.6661
0.6606
0.6587
0.6587
0.6609
0.6636
0.6666
0.6698
0.6729
0.6759
0.6788
0.6817
0.6846
0.6877
0.6907
0.6942
0.6986
0.7038
0.7101
0.7168
0.7234
0.7292
0.7351
0.7408
0.7468
0.7528
0.7587
0.7642
0.77
0.7761
0.7834
0.7909
0.7982
0.8054
0.8121
0.8179
0.8235
0.8288
0.8334
0.8376
0.8416
0.8451
0.8485
0.852
0.8555
0.8588
0.862
0.865
0.8679
0.8706
0.8732
0.8757
0.878
0.8802
0.8821
0.8838
0.8852
0.8861
0.8883
0.8933
0.9017
0.9127
0.9244
0.933
0.939
0.9408
0.9404
0.9356
0.9296
0.9246
0.9128
0.8929
0.8579
0.09941
0.2122
0.454
0.6884
0.7784
0.8169
0.8067
0.7508
0.7322
0.721
0.6693
0.3081
0.04256
0.003273
0.0005269
0.0003217
0.0008366
0.004243
0.02374
0.09793
0.2519
0.3769
0.4086
0.3946
0.3914
0.383
0.3755
0.37
0.3749
0.3753
0.3977
0.4072
0.3703
0.3195
0.2744
0.242
0.2267
0.2242
0.2254
0.2281
0.232
0.2363
0.244
0.2568
0.2723
0.2848
0.2926
0.3054
0.3301
0.3583
0.3788
0.3875
0.3813
0.3785
0.3884
0.401
0.4159
0.4296
0.4415
0.4503
0.4623
0.4751
0.4863
0.4955
0.5058
0.5168
0.5286
0.5408
0.5491
0.5541
0.5594
0.5658
0.5734
0.5807
0.5862
0.5908
0.5945
0.5988
0.6039
0.6099
0.6165
0.6221
0.6246
0.6279
0.6275
0.6249
0.6214
0.618
0.6147
0.6154
0.6178
0.6211
0.6246
0.628
0.6316
0.6352
0.6387
0.6417
0.6447
0.6478
0.6516
0.6556
0.6606
0.6669
0.6739
0.6821
0.6905
0.6979
0.7044
0.7104
0.7162
0.7224
0.7291
0.7357
0.7425
0.7495
0.7567
0.765
0.7734
0.7818
0.7902
0.799
0.8073
0.8154
0.8226
0.8281
0.8324
0.8363
0.8398
0.8434
0.8469
0.8505
0.8539
0.857
0.8599
0.8627
0.8654
0.8679
0.8703
0.8724
0.8743
0.8759
0.8772
0.8799
0.8831
0.8887
0.897
0.9077
0.919
0.9288
0.9336
0.9355
0.9321
0.9268
0.9161
0.9049
0.8912
0.8754
0.8521
0.8183
0.106
0.2086
0.4355
0.6648
0.7694
0.8152
0.8186
0.7836
0.732
0.6576
0.5179
0.2137
0.05077
0.008965
0.002684
0.002234
0.006135
0.02667
0.0993
0.2441
0.3837
0.4111
0.4038
0.3884
0.3937
0.4008
0.4055
0.3922
0.3814
0.3672
0.3591
0.3461
0.312
0.2716
0.2358
0.2159
0.2063
0.2023
0.1994
0.1985
0.1989
0.2014
0.2079
0.2175
0.2273
0.2354
0.2422
0.2565
0.2749
0.2971
0.3108
0.3182
0.3175
0.3263
0.3427
0.36
0.3773
0.3907
0.4026
0.4124
0.4242
0.4355
0.446
0.4542
0.4643
0.4727
0.4823
0.4924
0.4989
0.5045
0.5121
0.5201
0.5283
0.5352
0.5401
0.5442
0.5478
0.5526
0.5578
0.5637
0.5683
0.5721
0.5729
0.5754
0.5772
0.5787
0.5769
0.5737
0.5704
0.5705
0.5724
0.5756
0.5788
0.5819
0.5855
0.5896
0.5935
0.5973
0.6014
0.6059
0.6114
0.6173
0.6243
0.6321
0.6412
0.6506
0.6604
0.6688
0.6761
0.6832
0.6901
0.6973
0.7054
0.7134
0.7215
0.7296
0.7376
0.7461
0.7546
0.7629
0.7719
0.7824
0.7937
0.8047
0.8142
0.8211
0.8259
0.8297
0.8334
0.837
0.8407
0.8442
0.8474
0.8503
0.8531
0.8558
0.8584
0.8608
0.8629
0.8648
0.8664
0.8697
0.8737
0.8804
0.887
0.895
0.9037
0.9144
0.923
0.929
0.9282
0.9239
0.9131
0.9005
0.8807
0.8635
0.8452
0.8292
0.8081
0.7808
0.1124
0.2101
0.4223
0.6493
0.7714
0.8202
0.8311
0.8165
0.7573
0.6189
0.3998
0.1785
0.06733
0.02651
0.01421
0.01469
0.03484
0.1069
0.2426
0.3705
0.4147
0.3943
0.3963
0.3951
0.4086
0.4231
0.4321
0.426
0.389
0.3526
0.3216
0.2981
0.27
0.2427
0.215
0.2011
0.1948
0.1943
0.1941
0.196
0.1991
0.2036
0.209
0.2147
0.2185
0.2224
0.2283
0.2427
0.2589
0.2732
0.2834
0.2883
0.2896
0.2997
0.3128
0.3271
0.3424
0.356
0.3688
0.3795
0.3912
0.4029
0.4129
0.419
0.4288
0.433
0.4382
0.444
0.4517
0.4591
0.4702
0.4786
0.4845
0.489
0.4927
0.497
0.5009
0.5061
0.5109
0.5171
0.5212
0.5237
0.5243
0.5274
0.5292
0.5307
0.5303
0.5288
0.5291
0.5335
0.5357
0.5362
0.5341
0.5309
0.5318
0.5368
0.5422
0.5481
0.5549
0.5617
0.57
0.578
0.5874
0.5969
0.6073
0.6177
0.6286
0.6384
0.6475
0.6565
0.6655
0.6746
0.6842
0.6936
0.7029
0.7119
0.7202
0.7286
0.7369
0.745
0.7541
0.765
0.7772
0.7907
0.8024
0.8113
0.8174
0.8218
0.8255
0.8292
0.8327
0.836
0.8389
0.8416
0.8443
0.8468
0.8493
0.8515
0.8558
0.8611
0.8663
0.8737
0.8803
0.888
0.8953
0.9041
0.9111
0.9188
0.923
0.9229
0.9142
0.9007
0.8774
0.8562
0.8338
0.8143
0.793
0.7823
0.7742
0.7597
0.1094
0.1941
0.3931
0.6344
0.7783
0.8262
0.8432
0.8403
0.7838
0.6337
0.3636
0.1621
0.08441
0.06176
0.05268
0.06434
0.1138
0.2386
0.3693
0.4203
0.4179
0.407
0.4197
0.4247
0.4244
0.4194
0.4132
0.4025
0.3756
0.3211
0.2762
0.2479
0.2233
0.2053
0.1914
0.1831
0.1799
0.185
0.1893
0.1944
0.1999
0.2076
0.2153
0.223
0.2276
0.2335
0.2414
0.2514
0.2603
0.2667
0.2732
0.2779
0.2841
0.2936
0.3033
0.3136
0.3254
0.3364
0.3471
0.3573
0.3679
0.378
0.3867
0.3939
0.4024
0.4037
0.4039
0.4055
0.412
0.4199
0.4326
0.4392
0.4419
0.4449
0.4481
0.4528
0.457
0.4618
0.4647
0.4684
0.4707
0.4718
0.4722
0.4754
0.4786
0.4831
0.4868
0.4888
0.4949
0.5033
0.5048
0.5027
0.4941
0.4828
0.4775
0.4807
0.4869
0.4964
0.5072
0.5174
0.529
0.5397
0.5511
0.5622
0.5739
0.5857
0.5981
0.6103
0.6226
0.6345
0.6461
0.6575
0.6687
0.6794
0.6898
0.6994
0.708
0.7161
0.7237
0.7309
0.7389
0.7487
0.7602
0.7741
0.7877
0.7986
0.8065
0.812
0.8157
0.8193
0.8227
0.8283
0.835
0.842
0.8481
0.8527
0.8549
0.8569
0.8622
0.8663
0.8692
0.8738
0.8784
0.8851
0.8922
0.8993
0.9062
0.9123
0.9129
0.9066
0.8889
0.8609
0.8303
0.8036
0.7849
0.7739
0.7639
0.7612
0.7595
0.7466
0.09571
0.1684
0.3455
0.6145
0.7815
0.8303
0.8504
0.854
0.8153
0.6843
0.4351
0.1905
0.114
0.1047
0.1316
0.18
0.2502
0.3707
0.4306
0.4408
0.4322
0.4342
0.4449
0.4455
0.4248
0.3881
0.3594
0.3392
0.3173
0.2972
0.2626
0.2395
0.2152
0.1931
0.1702
0.1618
0.1604
0.1689
0.1799
0.189
0.1967
0.2041
0.2122
0.2209
0.229
0.2394
0.2524
0.2633
0.2711
0.2761
0.2793
0.2824
0.2897
0.296
0.3029
0.3103
0.3194
0.3277
0.3368
0.3462
0.3553
0.3639
0.3717
0.3792
0.39
0.3887
0.3853
0.3805
0.3814
0.3857
0.3986
0.4038
0.4049
0.4066
0.4089
0.4125
0.4151
0.4164
0.4163
0.4159
0.4141
0.4131
0.4155
0.4218
0.4286
0.4363
0.4425
0.4472
0.4574
0.4681
0.4691
0.4635
0.448
0.4309
0.422
0.4246
0.4309
0.4443
0.4599
0.4743
0.489
0.5029
0.5169
0.5305
0.5444
0.5587
0.5733
0.5879
0.602
0.6155
0.6287
0.6415
0.6543
0.6664
0.6775
0.6875
0.6966
0.7051
0.7131
0.721
0.7282
0.7357
0.7443
0.7578
0.7748
0.7924
0.8065
0.8164
0.8214
0.8248
0.828
0.835
0.8434
0.8524
0.8574
0.859
0.8564
0.854
0.8572
0.8605
0.8634
0.8658
0.8681
0.8707
0.8769
0.8821
0.8874
0.8896
0.8843
0.8699
0.8418
0.8074
0.7797
0.7629
0.7549
0.7509
0.7439
0.7362
0.7298
0.718
0.08486
0.1498
0.3159
0.6
0.7841
0.8328
0.8514
0.8537
0.8255
0.7135
0.4812
0.2209
0.1421
0.1572
0.2469
0.3586
0.4084
0.4512
0.4523
0.445
0.4365
0.4417
0.4505
0.4382
0.385
0.2968
0.2447
0.2248
0.227
0.2439
0.2513
0.227
0.1984
0.1697
0.1429
0.1339
0.1354
0.1475
0.1647
0.1763
0.1831
0.1879
0.1935
0.201
0.212
0.2257
0.2412
0.2557
0.2676
0.2763
0.2815
0.2861
0.292
0.2962
0.2999
0.3047
0.3119
0.3196
0.3285
0.3382
0.348
0.358
0.3674
0.3772
0.3903
0.3888
0.3783
0.3649
0.355
0.3518
0.363
0.3683
0.3694
0.3705
0.3719
0.3722
0.372
0.3708
0.3688
0.3664
0.3682
0.3709
0.3775
0.3859
0.3933
0.3943
0.3986
0.4012
0.4098
0.4169
0.4135
0.4065
0.3932
0.3782
0.3698
0.3722
0.3777
0.3942
0.4135
0.4326
0.4509
0.4677
0.4843
0.5008
0.5176
0.5347
0.5516
0.5681
0.5837
0.5984
0.613
0.6272
0.6414
0.6545
0.6661
0.6765
0.6875
0.6991
0.7102
0.7204
0.7287
0.7346
0.7404
0.7519
0.7693
0.7906
0.8098
0.8243
0.8324
0.8371
0.8377
0.841
0.8458
0.853
0.8549
0.8548
0.8491
0.8441
0.8448
0.8463
0.8455
0.8428
0.842
0.8407
0.8446
0.8456
0.8467
0.8423
0.8298
0.8026
0.7738
0.747
0.7362
0.7358
0.734
0.7263
0.7129
0.6993
0.6877
0.6769
0.08374
0.1438
0.3076
0.5978
0.7803
0.8276
0.847
0.8463
0.8232
0.7411
0.5629
0.3157
0.221
0.2626
0.4136
0.5292
0.5355
0.5055
0.466
0.4421
0.4343
0.4344
0.4223
0.3786
0.2904
0.197
0.1437
0.1283
0.1398
0.1711
0.2068
0.2205
0.189
0.156
0.1291
0.1155
0.1143
0.1246
0.1453
0.158
0.1631
0.1618
0.1627
0.1674
0.1798
0.1943
0.211
0.2284
0.2447
0.2582
0.2671
0.2736
0.2784
0.2818
0.2848
0.2889
0.295
0.3018
0.3098
0.3201
0.3328
0.3446
0.3556
0.3672
0.3826
0.3801
0.367
0.3465
0.3302
0.3225
0.3318
0.3368
0.3376
0.3374
0.3359
0.3349
0.3341
0.3334
0.3323
0.3303
0.3332
0.3373
0.3456
0.3514
0.3536
0.3421
0.3348
0.3289
0.3322
0.3365
0.3369
0.3353
0.3305
0.3269
0.325
0.3281
0.3326
0.3483
0.369
0.3918
0.414
0.4347
0.455
0.4751
0.4949
0.5143
0.5331
0.5513
0.5685
0.5855
0.6024
0.6193
0.6359
0.6512
0.6644
0.6757
0.6883
0.7011
0.7135
0.7244
0.7331
0.7384
0.7427
0.7524
0.7683
0.7902
0.8132
0.8316
0.841
0.8447
0.8409
0.8376
0.8363
0.8393
0.8378
0.8354
0.8254
0.8176
0.8154
0.8151
0.8125
0.8076
0.8028
0.7955
0.7937
0.7873
0.7811
0.7655
0.7378
0.7088
0.6869
0.6776
0.6832
0.6927
0.6912
0.6835
0.6674
0.6498
0.6318
0.6206
0.08175
0.1372
0.2984
0.5946
0.7731
0.8197
0.8407
0.8414
0.8235
0.7667
0.6353
0.4505
0.3729