/*--------------------------------*- C++ -*----------------------------------*\
| =========                 |                                                 |
| \\      /  F ield         | OpenFOAM: The Open Source CFD Toolbox           |
|  \\    /   O peration     | Version:  5.x                                   |
|   \\  /    A nd           | Web:      www.OpenFOAM.org                      |
|    \\/     M anipulation  |                                                 |
\*---------------------------------------------------------------------------*/
FoamFile
{
    version     2.0;
    format      ascii;
    class       volSymmTensorField;
    location    "15";
    object      sigmaD;
}
// * * * * * * * * * * * * * * * * * * * * * * * * * * * * * * * * * * * * * //

dimensions      [0 2 -2 0 0 0 0];

internalField   nonuniform List<symmTensor> 
80000
(
(88109 5879.8 0 4655.2 0 21407)
(69406 2230.8 0 303.06 0 16087)
(63600 1053.4 0 -83.715 0 14658)
(60486 692.41 0 43.107 0 13968)
(58243 561.85 0 128.42 0 13470)
(56355 496.69 0 156.78 0 13041)
(54682 455.31 0 160.12 0 12656)
(53120 425.96 0 155.7 0 12294)
(51639 403.84 0 149.94 0 11951)
(50224 385.99 0 144.05 0 11623)
(48866 370.59 0 137.98 0 11309)
(47561 356.64 0 131.65 0 11006)
(46304 343.62 0 125.18 0 10714)
(45091 331.21 0 118.74 0 10433)
(43922 319.24 0 112.44 0 10162)
(42794 307.62 0 106.32 0 9900.1)
(41708 296.31 0 100.38 0 9648.1)
(40662 285.3 0 94.665 0 9405.5)
(39656 274.63 0 89.186 0 9172)
(38688 264.29 0 83.955 0 8947.3)
(37757 254.32 0 78.976 0 8731.3)
(36861 244.72 0 74.249 0 8523.5)
(36000 235.5 0 69.768 0 8323.8)
(35172 226.66 0 65.524 0 8131.6)
(34375 218.2 0 61.508 0 7946.8)
(33608 210.13 0 57.709 0 7769)
(32870 202.41 0 54.116 0 7597.8)
(32159 195.06 0 50.716 0 7433)
(31474 188.04 0 47.497 0 7274.3)
(30815 181.34 0 44.45 0 7121.3)
(30178 174.95 0 41.562 0 6973.9)
(29565 168.84 0 38.823 0 6831.7)
(28973 163 0 36.224 0 6694.5)
(28402 157.41 0 33.755 0 6562.1)
(27850 152.05 0 31.408 0 6434.2)
(27318 146.9 0 29.176 0 6310.8)
(26803 141.95 0 27.05 0 6191.6)
(26306 137.17 0 25.026 0 6076.5)
(25826 132.56 0 23.095 0 5965.3)
(25363 128.09 0 21.255 0 5857.9)
(24915 123.76 0 19.498 0 5754.1)
(24482 119.55 0 17.823 0 5653.9)
(24065 115.45 0 16.223 0 5557.1)
(23661 111.45 0 14.697 0 5463.7)
(23272 107.54 0 13.239 0 5373.6)
(22897 103.72 0 11.847 0 5286.7)
(22535 99.982 0 10.518 0 5202.9)
(22187 96.323 0 9.248 0 5122.2)
(21852 92.742 0 8.0358 0 5044.5)
(21529 89.235 0 6.8791 0 4969.7)
(21218 85.801 0 5.7757 0 4897.8)
(20920 82.437 0 4.7241 0 4828.8)
(20633 79.138 0 3.7224 0 4762.4)
(20359 75.901 0 2.7692 0 4698.8)
(20095 72.72 0 1.8625 0 4637.8)
(19843 69.591 0 1.0011 0 4579.4)
(19602 66.508 0 0.1835 0 4523.6)
(19372 63.464 0 -0.59096 0 4470.3)
(19152 60.454 0 -1.3226 0 4419.4)
(18943 57.47 0 -2.0111 0 4371.1)
(18745 54.506 0 -2.6561 0 4325.2)
(18557 51.557 0 -3.2575 0 4281.7)
(18380 48.62 0 -3.8174 0 4240.7)
(18213 45.701 0 -4.3396 0 4202.1)
(18057 42.813 0 -4.8302 0 4165.8)
(17910 39.977 0 -5.2949 0 4132)
(17774 37.215 0 -5.7368 0 4100.4)
(17647 34.545 0 -6.1545 0 4071)
(17530 31.974 0 -6.5428 0 4043.8)
(17421 29.49 0 -6.894 0 4018.7)
(17321 27.063 0 -7.1976 0 3995.6)
(17230 24.647 0 -7.4394 0 3974.4)
(17147 22.182 0 -7.6079 0 3955.2)
(17073 19.623 0 -7.7143 0 3938.1)
(17008 16.969 0 -7.8005 0 3923.2)
(16953 14.287 0 -7.9135 0 3910.4)
(16907 11.688 0 -8.0674 0 3899.9)
(16871 9.2637 0 -8.2424 0 3891.3)
(16842 7.0473 0 -8.3948 0 3884.7)
(16820 4.9984 0 -8.4558 0 3879.7)
(16806 3.002 0 -8.4179 0 3876.3)
(16797 0.9587 0 -8.3898 0 3874.3)
(16796 -1.1402 0 -8.3784 0 3874)
(16801 -3.2691 0 -8.3624 0 3875.2)
(16814 -5.4028 0 -8.6152 0 3878.2)
(16835 -7.6018 0 -9.0918 0 3882.9)
(16864 -9.699 0 -9.2598 0 3889.6)
(16902 -11.387 0 -9.1204 0 3898.4)
(16949 -12.621 0 -9.1628 0 3909.1)
(17008 -14.316 0 -9.4295 0 3922.7)
(17083 -15.666 0 -9.9791 0 3939.9)
(17169 -14.708 0 -11.948 0 3959.3)
(17286 -11.094 0 -14.498 0 3985.7)
(17343 -4.6298 0 -15.233 0 3998.8)
(17374 4.4319 0 -15.973 0 4005.7)
(17418 14.749 0 -17.298 0 4015.7)
(17352 24.535 0 -15.836 0 4000.8)
(17257 33.763 0 -14.768 0 3979)
(17226 45.179 0 -15.805 0 3971.5)
(17033 56.46 0 -12.994 0 3927.8)
(16798 63.642 0 -6.6489 0 3874.9)
(16553 63.306 0 -0.95204 0 3819.6)
(16326 55.691 0 4.2062 0 3768.5)
(16088 44.652 0 6.6026 0 3714.2)
(16028 35.521 0 4.4795 0 3699.8)
(15904 30.37 0 2.3295 0 3670.7)
(15798 26.735 0 2.017 0 3646.1)
(15708 23.496 0 1.7206 0 3625.3)
(15633 20.51 0 1.3362 0 3607.9)
(15569 17.861 0 1.0148 0 3593.2)
(15515 15.581 0 0.8342 0 3580.6)
(15468 13.624 0 0.78571 0 3569.8)
(15428 11.92 0 0.82277 0 3560.5)
(15393 10.414 0 0.90721 0 3552.5)
(15364 9.07 0 1.0203 0 3545.7)
(15339 7.8616 0 1.1546 0 3540)
(15318 6.7711 0 1.3061 0 3535.2)
(15300 5.784 0 1.4722 0 3531.2)
(15286 4.8882 0 1.6502 0 3528)
(15275 4.0738 0 1.8379 0 3525.5)
(15267 3.3322 0 2.0334 0 3523.7)
(15261 2.6564 0 2.2354 0 3522.4)
(15258 2.0404 0 2.4425 0 3521.6)
(15256 1.479 0 2.6538 0 3521.2)
(15256 0.96763 0 2.8684 0 3521.4)
(15258 0.50242 0 3.0858 0 3521.9)
(15262 0.07984 0 3.3052 0 3522.7)
(15267 -0.30322 0 3.5262 0 3523.9)
(15273 -0.64955 0 3.7482 0 3525.3)
(15280 -0.96166 0 3.971 0 3527)
(15288 -1.2418 0 4.1941 0 3529)
(15297 -1.4921 0 4.4173 0 3531.1)
(15307 -1.7143 0 4.6402 0 3533.4)
(15317 -1.91 0 4.8626 0 3535.9)
(15329 -2.0807 0 5.0844 0 3538.5)
(15340 -2.2278 0 5.3052 0 3541.3)
(15352 -2.3522 0 5.5248 0 3544.1)
(15365 -2.4551 0 5.7432 0 3547.1)
(15378 -2.5373 0 5.9602 0 3550.1)
(15391 -2.5996 0 6.1756 0 3553.1)
(15404 -2.6429 0 6.3892 0 3556.2)
(15417 -2.6677 0 6.601 0 3559.3)
(15430 -2.6749 0 6.8109 0 3562.4)
(15444 -2.6649 0 7.0187 0 3565.5)
(15457 -2.6384 0 7.2244 0 3568.6)
(15470 -2.5959 0 7.4277 0 3571.7)
(15483 -2.5381 0 7.6286 0 3574.7)
(15495 -2.4652 0 7.8271 0 3577.6)
(15507 -2.3777 0 8.0228 0 3580.5)
(15519 -2.276 0 8.2158 0 3583.3)
(15531 -2.1603 0 8.4059 0 3586)
(15542 -2.031 0 8.5929 0 3588.6)
(15552 -1.8882 0 8.7769 0 3591)
(15562 -1.7324 0 8.9576 0 3593.4)
(15572 -1.5637 0 9.1349 0 3595.6)
(15581 -1.3826 0 9.3088 0 3597.7)
(15589 -1.1895 0 9.4793 0 3599.6)
(15596 -0.98492 0 9.6461 0 3601.3)
(15603 -0.76939 0 9.8093 0 3602.9)
(15609 -0.54353 0 9.9689 0 3604.3)
(15614 -0.30794 0 10.125 0 3605.5)
(15618 -0.063217 0 10.277 0 3606.5)
(15621 0.19007 0 10.425 0 3607.3)
(15623 0.45145 0 10.569 0 3607.9)
(15625 0.72064 0 10.709 0 3608.2)
(15625 0.99759 0 10.845 0 3608.4)
(15625 1.2824 0 10.976 0 3608.3)
(15623 1.5753 0 11.104 0 3608)
(15621 1.8761 0 11.227 0 3607.4)
(15617 2.185 0 11.346 0 3606.6)
(15613 2.5024 0 11.461 0 3605.5)
(15607 2.8288 0 11.571 0 3604.2)
(15600 3.1647 0 11.675 0 3602.6)
(15591 3.5104 0 11.777 0 3600.8)
(15582 3.8645 0 11.875 0 3598.6)
(15571 4.2286 0 11.97 0 3596.1)
(15559 4.5998 0 12.061 0 3593.4)
(15546 4.9712 0 12.15 0 3590.4)
(15531 5.3392 0 12.24 0 3587)
(15515 5.6991 0 12.327 0 3583.3)
(15498 6.0522 0 12.401 0 3579.4)
(15480 6.4145 0 12.458 0 3575.1)
(15460 6.7955 0 12.503 0 3570.6)
(15439 7.2008 0 12.542 0 3565.8)
(15417 7.6298 0 12.584 0 3560.7)
(15393 8.0682 0 12.63 0 3555.2)
(15368 8.5078 0 12.672 0 3549.3)
(15341 8.9507 0 12.705 0 3543.1)
(15312 9.4026 0 12.733 0 3536.5)
(15282 9.8641 0 12.758 0 3529.6)
(15250 10.334 0 12.779 0 3522.3)
(15217 10.812 0 12.795 0 3514.6)
(15182 11.299 0 12.805 0 3506.5)
(15146 11.796 0 12.81 0 3498.1)
(15107 12.303 0 12.809 0 3489.2)
(15067 12.822 0 12.803 0 3480)
(15025 13.354 0 12.792 0 3470.3)
(14981 13.898 0 12.775 0 3460.2)
(14936 14.454 0 12.752 0 3449.6)
(14888 15.024 0 12.723 0 3438.6)
(14838 15.607 0 12.688 0 3427.2)
(14787 16.203 0 12.647 0 3415.3)
(14733 16.813 0 12.599 0 3402.9)
(14677 17.435 0 12.545 0 3390)
(14620 18.07 0 12.484 0 3376.6)
(14559 18.717 0 12.416 0 3362.7)
(14497 19.377 0 12.342 0 3348.3)
(14432 20.049 0 12.26 0 3333.4)
(14365 20.732 0 12.171 0 3317.9)
(14296 21.427 0 12.075 0 3301.9)
(14224 22.132 0 11.972 0 3285.3)
(14150 22.848 0 11.861 0 3268.2)
(14074 23.574 0 11.743 0 3250.5)
(13995 24.311 0 11.617 0 3232.2)
(13913 25.059 0 11.484 0 3213.3)
(13829 25.821 0 11.342 0 3193.9)
(13742 26.597 0 11.194 0 3173.8)
(13653 27.387 0 11.041 0 3153.1)
(13560 28.187 0 10.888 0 3131.8)
(13465 28.983 0 10.734 0 3109.9)
(13368 29.769 0 10.579 0 3087.3)
(13267 30.536 0 10.417 0 3064.1)
(13165 31.298 0 10.233 0 3040.3)
(13059 32.075 0 10.027 0 3016)
(12951 32.882 0 9.8125 0 2991.1)
(12841 33.711 0 9.5964 0 2965.4)
(12727 34.555 0 9.3836 0 2939.2)
(12610 35.395 0 9.175 0 2912.2)
(12491 36.231 0 8.9589 0 2884.7)
(12369 37.067 0 8.7327 0 2856.5)
(12245 37.908 0 8.5045 0 2827.6)
(12117 38.749 0 8.2744 0 2798.1)
(11986 39.588 0 8.0413 0 2768)
(11853 40.425 0 7.8048 0 2737.2)
(11717 41.26 0 7.5651 0 2705.7)
(11579 42.091 0 7.3232 0 2673.7)
(11437 42.92 0 7.0794 0 2641)
(11293 43.746 0 6.8343 0 2607.6)
(11146 44.569 0 6.588 0 2573.7)
(10996 45.389 0 6.3409 0 2539.1)
(10844 46.206 0 6.0929 0 2503.9)
(10689 47.021 0 5.844 0 2468.1)
(10532 47.833 0 5.5941 0 2431.7)
(10371 48.644 0 5.3438 0 2394.6)
(10209 49.455 0 5.0943 0 2357)
(10043 50.266 0 4.8454 0 2318.8)
(9875.1 51.078 0 4.5965 0 2279.9)
(9704.5 51.892 0 4.3494 0 2240.5)
(9531.2 52.7 0 4.1102 0 2200.4)
(9355.1 53.481 0 3.8879 0 2159.8)
(9176.4 54.22 0 3.6715 0 2118.5)
(8995.8 54.929 0 3.4395 0 2076.7)
(8812.8 55.623 0 3.1912 0 2034.5)
(8627.9 56.321 0 2.9357 0 1991.7)
(8440.5 57.019 0 2.6832 0 1948.4)
(8251 57.698 0 2.4461 0 1904.6)
(8059.1 58.336 0 2.2218 0 1860.3)
(7865.5 58.928 0 1.9939 0 1815.6)
(7670.2 59.477 0 1.7623 0 1770.5)
(7473.2 59.978 0 1.5356 0 1724.9)
(7274.6 60.422 0 1.3125 0 1679.1)
(7074.9 60.803 0 1.0909 0 1632.9)
(6874.1 61.119 0 0.86912 0 1586.5)
(6672.6 61.371 0 0.64266 0 1540)
(6470.7 61.568 0 0.40796 0 1493.3)
(6268.4 61.722 0 0.17381 0 1446.6)
(6065.8 61.829 0 -0.040294 0 1399.8)
(5862.8 61.868 0 -0.23086 0 1352.9)
(5661 61.844 0 -0.37471 0 1306.3)
(5459.5 61.692 0 -0.38728 0 1259.8)
(5258.9 61.265 0 -0.18444 0 1213.6)
(5058.2 60.32 0 0.28929 0 1167.3)
(4857.6 58.546 0 1.0706 0 1121.2)
(4658.1 55.585 0 1.9945 0 1075.4)
(4469 51.305 0 1.943 0 1031.8)
(4324.1 48.005 0 -0.41278 0 997.78)
(4205.4 48.823 0 -4.5519 0 969.42)
(4080.9 54.23 0 -8.0286 0 939.88)
(3902 60.849 0 -9.0902 0 898.37)
(3710.6 66.612 0 -7.2006 0 854.63)
(3454.4 66.697 0 -3.2832 0 796.4)
(3251.5 62.316 0 0.17282 0 750.38)
(3056.8 56.688 0 2.5367 0 706.01)
(2879 51.155 0 4.0123 0 665.31)
(2727.2 47.055 0 4.319 0 630.35)
(2574.8 44.408 0 3.5842 0 595.02)
(2446.4 43.941 0 2.1232 0 565.05)
(2302.4 44.751 0 0.92349 0 531.53)
(2153.3 45.337 0 1.018 0 497.14)
(1985 43.759 0 1.8016 0 458.49)
(1853.8 41.623 0 1.7667 0 428.2)
(1731.4 39.713 0 0.99177 0 399.79)
(1610.1 38.144 0 0.55074 0 371.69)
(1489.8 36.521 0 0.6934 0 343.95)
(1369.9 34.366 0 1.1097 0 316.39)
(1262.1 32.024 0 1.2655 0 291.54)
(1164.2 29.914 0 1.0525 0 268.9)
(1071.4 28.153 0 0.69325 0 247.41)
(985.07 26.862 0 0.35709 0 227.41)
(899.49 25.755 0 0.17196 0 207.61)
(817.14 24.559 0 0.11263 0 188.6)
(738.39 23.166 0 0.10374 0 170.42)
(664.31 21.611 0 0.10139 0 153.32)
(596.15 20.013 0 0.057435 0 137.59)
(533.44 18.428 0 -0.0059142 0 123.1)
(475.65 16.832 0 -0.03957 0 109.76)
(423.61 15.219 0 -0.0043966 0 97.755)
(376.97 13.525 0 0.15377 0 87.029)
(335.99 11.675 0 0.45329 0 77.641)
(302.16 9.7697 0 0.82608 0 69.92)
(275.46 8.0016 0 1.1585 0 63.835)
(254.61 6.627 0 1.3204 0 59.061)
(237.84 5.8653 0 1.1266 0 55.146)
(226.04 6.1495 0 0.40266 0 52.256)
(215.94 7.578 0 -0.44395 0 49.729)
(186.46 8.2941 0 -0.29695 0 42.961)
(159.39 7.9887 0 0.45927 0 36.889)
(131.36 6.6462 0 1.0919 0 30.566)
(112.61 5.1987 0 1.2101 0 26.266)
(98.54 3.8935 0 0.86375 0 22.939)
(92.318 3.1534 0 0.41983 0 21.401)
(82.939 2.6033 0 0.12416 0 19.168)
(75.099 2.2319 0 0.069779 0 17.347)
(68.394 1.9593 0 0.069614 0 15.799)
(62.525 1.7411 0 0.070834 0 14.445)
(57.308 1.5578 0 0.066702 0 13.24)
(52.627 1.4003 0 0.060012 0 12.159)
(48.406 1.2636 0 0.0531 0 11.183)
(44.587 1.1439 0 0.046782 0 10.3)
(41.122 1.0385 0 0.041171 0 9.4992)
(37.971 0.9451 0 0.036204 0 8.7709)
(35.099 0.86194 0 0.031796 0 8.1071)
(32.476 0.78758 0 0.027869 0 7.5009)
(30.076 0.72087 0 0.024361 0 6.9464)
(27.878 0.66087 0 0.02122 0 6.4382)
(25.86 0.60679 0 0.018406 0 5.9719)
(24.005 0.55796 0 0.015885 0 5.5433)
(22.298 0.51382 0 0.013629 0 5.1488)
(20.724 0.47385 0 0.011612 0 4.7852)
(19.271 0.43762 0 0.0098095 0 4.4494)
(17.928 0.40472 0 0.0081972 0 4.139)
(16.684 0.37481 0 0.0067528 0 3.8516)
(15.53 0.34757 0 0.0054552 0 3.5852)
(14.459 0.32273 0 0.004285 0 3.3378)
(13.464 0.30002 0 0.0032255 0 3.1077)
(12.537 0.27925 0 0.002262 0 2.8936)
(11.673 0.26021 0 0.0013822 0 2.694)
(10.866 0.24273 0 0.00057551 0 2.5078)
(10.113 0.22667 0 -0.00016664 0 2.3338)
(9.4086 0.21188 0 -0.0008516 0 2.171)
(8.749 0.19824 0 -0.0014856 0 2.0187)
(8.1308 0.18565 0 -0.0020738 0 1.8759)
(7.551 0.17401 0 -0.0026207 0 1.7419)
(7.0065 0.16323 0 -0.0031302 0 1.6162)
(6.495 0.15324 0 -0.0036055 0 1.498)
(6.0139 0.14397 0 -0.0040494 0 1.3869)
(5.5611 0.13535 0 -0.0044643 0 1.2823)
(5.1347 0.12732 0 -0.004852 0 1.1838)
(4.733 0.11983 0 -0.0052144 0 1.091)
(4.3542 0.11285 0 -0.0055529 0 1.0035)
(3.997 0.10631 0 -0.0058685 0 0.92103)
(3.6599 0.10018 0 -0.0061622 0 0.84318)
(3.3418 0.09443 0 -0.0064348 0 0.76971)
(3.0416 0.089017 0 -0.0066869 0 0.70037)
(2.7583 0.083909 0 -0.0069188 0 0.63493)
(2.4909 0.079077 0 -0.0071309 0 0.57318)
(2.2388 0.074492 0 -0.0073231 0 0.51494)
(2.001 0.070127 0 -0.0074953 0 0.46005)
(1.7772 0.065956 0 -0.0076474 0 0.40835)
(1.5666 0.061955 0 -0.0077788 0 0.35973)
(1.3689 0.058103 0 -0.007889 0 0.31407)
(1.1835 0.054379 0 -0.0079772 0 0.27127)
(1.0102 0.050764 0 -0.0080426 0 0.23126)
(0.84864 0.047241 0 -0.0080841 0 0.19397)
(0.6986 0.043794 0 -0.0081005 0 0.15935)
(0.55988 0.04041 0 -0.0080905 0 0.12734)
(0.43232 0.037077 0 -0.0080528 0 0.097907)
(0.31579 0.033786 0 -0.0079858 0 0.071031)
(0.21018 0.030529 0 -0.0078881 0 0.046684)
(0.11543 0.027303 0 -0.0077581 0 0.024847)
(0.03144 0.024105 0 -0.0075941 0 0.0055029)
(-0.041852 0.020936 0 -0.0073946 0 -0.011365)
(-0.10453 0.0178 0 -0.0071582 0 -0.025775)
(-0.15671 0.014704 0 -0.0068833 0 -0.037751)
(-0.1985 0.011658 0 -0.0065687 0 -0.047324)
(-0.23011 0.0086782 0 -0.0062137 0 -0.054535)
(-0.25175 0.0057831 0 -0.0058177 0 -0.059438)
(-0.26374 0.0029979 0 -0.0053814 0 -0.062104)
(-0.26648 0.00035496 0 -0.0049082 0 -0.062629)
(-0.26051 -0.0021033 0 -0.0044082 0 -0.061135)
(-0.24645 -0.0043234 0 -0.0038999 0 -0.057773)
(-0.22525 -0.0062542 0 -0.0034002 0 -0.052764)
(-0.19811 -0.0078812 0 -0.0028799 0 -0.046382)
(-0.16683 -0.0092448 0 -0.0022365 0 -0.039014)
(-0.1325 -0.010187 0 -0.0014956 0 -0.030923)
(-0.091946 -0.0097486 0 -0.0010737 0 -0.021466)
(-0.056543 -0.0084366 0 -0.0012959 0 -0.013347)
(-0.030444 -0.0071354 0 -0.0019415 0 -0.0074736)
(-0.0096634 -0.0046983 0 -0.0025035 0 -0.0028077)
(-0.00041059 -0.002218 0 -0.0004801 0 -0.00020554)
(61413 12642 0 8883.9 0 16222)
(63534 7985.3 0 2405 0 15217)
(60800 5185.8 0 637.73 0 14178)
(57905 3675.6 0 276.47 0 13427)
(55548 2917.1 0 202.17 0 12865)
(53625 2517.2 0 164.04 0 12413)
(51988 2279.5 0 126.73 0 12027)
(50500 2119.1 0 95.611 0 11676)
(49116 2000.6 0 75.657 0 11352)
(47811 1906.5 0 64.614 0 11048)
(46570 1827 0 58.721 0 10761)
(45386 1756.2 0 55.223 0 10486)
(44250 1691 0 52.821 0 10224)
(43157 1629.3 0 51.097 0 9971.1)
(42105 1570.1 0 49.792 0 9728)
(41091 1512.9 0 48.641 0 9493.8)
(40115 1457.4 0 47.467 0 9268.2)
(39174 1403.6 0 46.195 0 9050.8)
(38267 1351.4 0 44.808 0 8841.3)
(37394 1301 0 43.319 0 8639.4)
(36553 1252.4 0 41.753 0 8444.9)
(35743 1205.6 0 40.134 0 8257.6)
(34962 1160.6 0 38.489 0 8077)
(34209 1117.5 0 36.84 0 7903)
(33484 1076.3 0 35.208 0 7735.2)
(32785 1036.8 0 33.61 0 7573.6)
(32111 999.16 0 32.06 0 7417.6)
(31461 963.19 0 30.57 0 7267.2)
(30833 928.85 0 29.149 0 7122.1)
(30228 896.06 0 27.803 0 6982)
(29643 864.73 0 26.536 0 6846.8)
(29078 834.79 0 25.351 0 6716.2)
(28533 806.13 0 24.247 0 6590)
(28005 778.67 0 23.224 0 6468.1)
(27496 752.33 0 22.28 0 6350.3)
(27003 727 0 21.412 0 6236.4)
(26527 702.62 0 20.616 0 6126.3)
(26066 679.09 0 19.89 0 6019.8)
(25621 656.36 0 19.23 0 5916.9)
(25190 634.34 0 18.631 0 5817.4)
(24774 612.96 0 18.089 0 5721.2)
(24372 592.18 0 17.598 0 5628.3)
(23983 571.93 0 17.153 0 5538.4)
(23607 552.18 0 16.746 0 5451.7)
(23245 532.87 0 16.368 0 5367.9)
(22895 513.99 0 16.011 0 5287.1)
(22557 495.5 0 15.669 0 5209.1)
(22232 477.41 0 15.336 0 5133.9)
(21918 459.68 0 15.011 0 5061.5)
(21616 442.32 0 14.694 0 4991.7)
(21326 425.31 0 14.388 0 4924.6)
(21046 408.64 0 14.096 0 4860.1)
(20778 392.29 0 13.822 0 4798.2)
(20521 376.23 0 13.568 0 4738.7)
(20274 360.45 0 13.335 0 4681.7)
(20038 344.92 0 13.124 0 4627.1)
(19811 329.61 0 12.937 0 4574.9)
(19596 314.51 0 12.775 0 4525)
(19390 299.57 0 12.642 0 4477.5)
(19194 284.77 0 12.541 0 4432.2)
(19008 270.08 0 12.474 0 4389.3)
(18831 255.48 0 12.433 0 4348.6)
(18665 240.95 0 12.396 0 4310.1)
(18508 226.5 0 12.326 0 4273.9)
(18360 212.21 0 12.174 0 4239.8)
(18223 198.16 0 11.907 0 4208)
(18094 184.46 0 11.52 0 4178.2)
(17974 171.2 0 11.057 0 4150.5)
(17863 158.42 0 10.594 0 4124.8)
(17761 146.07 0 10.225 0 4101.1)
(17667 134 0 10.034 0 4079.3)
(17581 122.03 0 10.106 0 4059.4)
(17502 109.87 0 10.484 0 4041.4)
(17432 97.305 0 11.061 0 4025.4)
(17371 84.272 0 11.503 0 4011.3)
(17318 71.077 0 11.451 0 3999.1)
(17274 58.25 0 10.829 0 3988.7)
(17238 46.217 0 9.8487 0 3980.3)
(17210 35.119 0 8.8417 0 3973.7)
(17190 24.758 0 8.3283 0 3968.9)
(17177 14.61 0 8.5014 0 3966)
(17172 4.2619 0 8.6661 0 3964.8)
(17176 -6.4126 0 8.6461 0 3965.6)
(17188 -17.043 0 8.7301 0 3968.6)
(17210 -27.05 0 7.7037 0 3973.4)
(17244 -37.304 0 5.7549 0 3980.8)
(17292 -46.367 0 5.2942 0 3991.8)
(17349 -51.415 0 5.4149 0 4004.9)
(17403 -51.969 0 1.9898 0 4016.6)
(17460 -50.18 0 -4.0525 0 4028.3)
(17459 -43.929 0 -8.9116 0 4027)
(17426 -31.474 0 -16.397 0 4017.7)
(17408 -13.389 0 -24.063 0 4011.7)
(17324 12.122 0 -23.92 0 3992.2)
(17237 44.208 0 -25.587 0 3971.9)
(17214 81.559 0 -32.866 0 3964.8)
(17087 119.43 0 -31.632 0 3935.8)
(16938 156.32 0 -27.603 0 3902.5)
(16825 193.01 0 -27.887 0 3876.2)
(16663 222.39 0 -18.714 0 3841)
(16497 238.86 0 -3.288 0 3806.2)
(16430 237.98 0 6.8953 0 3793.1)
(16313 218.43 0 17.687 0 3768.6)
(16178 187.54 0 24.477 0 3739.1)
(16134 158.74 0 20.086 0 3727.8)
(16039 137.88 0 15.157 0 3704.8)
(15956 120.48 0 14.203 0 3685.4)
(15883 105.38 0 13.13 0 3668.4)
(15820 92.09 0 11.509 0 3653.5)
(15765 80.43 0 9.7812 0 3640.2)
(15715 70.235 0 8.3156 0 3628.5)
(15671 61.295 0 7.2074 0 3618.1)
(15632 53.395 0 6.3721 0 3609)
(15598 46.354 0 5.7033 0 3600.9)
(15569 40.036 0 5.1375 0 3593.9)
(15543 34.336 0 4.6451 0 3587.9)
(15520 29.176 0 4.212 0 3582.6)
(15501 24.492 0 3.8288 0 3578.1)
(15485 20.231 0 3.4878 0 3574.3)
(15472 16.349 0 3.1823 0 3571.1)
(15460 12.808 0 2.9066 0 3568.5)
(15452 9.5774 0 2.6562 0 3566.4)
(15445 6.6296 0 2.4276 0 3564.8)
(15440 3.9411 0 2.2179 0 3563.6)
(15437 1.4914 0 2.0248 0 3562.8)
(15435 -0.73759 0 1.8463 0 3562.4)
(15435 -2.762 0 1.6809 0 3562.4)
(15436 -4.5964 0 1.5273 0 3562.6)
(15439 -6.2537 0 1.3843 0 3563.1)
(15442 -7.7456 0 1.251 0 3563.9)
(15447 -9.083 0 1.1263 0 3564.8)
(15452 -10.275 0 1.0094 0 3566)
(15458 -11.331 0 0.89945 0 3567.4)
(15464 -12.258 0 0.79575 0 3568.9)
(15472 -13.064 0 0.69752 0 3570.6)
(15479 -13.753 0 0.60412 0 3572.3)
(15488 -14.333 0 0.51497 0 3574.2)
(15496 -14.807 0 0.4296 0 3576.2)
(15505 -15.18 0 0.34761 0 3578.2)
(15514 -15.456 0 0.26871 0 3580.3)
(15523 -15.638 0 0.19269 0 3582.4)
(15533 -15.731 0 0.1194 0 3584.5)
(15542 -15.736 0 0.048705 0 3586.7)
(15552 -15.658 0 -0.019517 0 3588.8)
(15561 -15.498 0 -0.085408 0 3590.9)
(15570 -15.261 0 -0.14915 0 3593)
(15579 -14.948 0 -0.21095 0 3595.1)
(15588 -14.562 0 -0.27106 0 3597.1)
(15596 -14.104 0 -0.32972 0 3599)
(15604 -13.577 0 -0.38716 0 3600.9)
(15612 -12.982 0 -0.44356 0 3602.7)
(15619 -12.32 0 -0.49899 0 3604.4)
(15626 -11.593 0 -0.55345 0 3606)
(15633 -10.801 0 -0.60683 0 3607.4)
(15639 -9.9476 0 -0.65893 0 3608.8)
(15644 -9.0333 0 -0.70948 0 3610)
(15648 -8.0607 0 -0.75814 0 3611)
(15652 -7.0321 0 -0.80455 0 3611.9)
(15656 -5.9503 0 -0.84846 0 3612.7)
(15658 -4.8183 0 -0.88981 0 3613.2)
(15660 -3.6388 0 -0.92867 0 3613.6)
(15661 -2.4148 0 -0.96515 0 3613.8)
(15661 -1.1488 0 -0.9994 0 3613.8)
(15660 0.15669 0 -1.0318 0 3613.7)
(15659 1.5003 0 -1.0635 0 3613.3)
(15656 2.8816 0 -1.0957 0 3612.7)
(15653 4.3014 0 -1.1293 0 3611.9)
(15648 5.7603 0 -1.1633 0 3610.8)
(15643 7.2583 0 -1.1965 0 3609.6)
(15636 8.7954 0 -1.2295 0 3608.1)
(15629 10.373 0 -1.2653 0 3606.3)
(15620 11.993 0 -1.3061 0 3604.3)
(15610 13.655 0 -1.347 0 3602.1)
(15600 15.361 0 -1.3813 0 3599.6)
(15588 17.105 0 -1.4036 0 3596.8)
(15574 18.881 0 -1.4194 0 3593.7)
(15560 20.679 0 -1.4431 0 3590.4)
(15545 22.485 0 -1.4654 0 3586.9)
(15528 24.293 0 -1.469 0 3583)
(15510 26.105 0 -1.4692 0 3578.9)
(15491 27.927 0 -1.4879 0 3574.5)
(15471 29.787 0 -1.535 0 3569.8)
(15449 31.714 0 -1.6087 0 3564.8)
(15426 33.721 0 -1.6795 0 3559.5)
(15402 35.803 0 -1.7208 0 3553.8)
(15376 37.934 0 -1.7441 0 3547.8)
(15348 40.094 0 -1.773 0 3541.5)
(15320 42.281 0 -1.8144 0 3534.9)
(15290 44.506 0 -1.8566 0 3527.9)
(15258 46.771 0 -1.8924 0 3520.6)
(15225 49.075 0 -1.9264 0 3512.9)
(15190 51.42 0 -1.9636 0 3504.9)
(15153 53.809 0 -2.0061 0 3496.5)
(15115 56.247 0 -2.0534 0 3487.7)
(15076 58.736 0 -2.1046 0 3478.5)
(15034 61.281 0 -2.1587 0 3469)
(14991 63.884 0 -2.2151 0 3459)
(14947 66.548 0 -2.2733 0 3448.7)
(14900 69.274 0 -2.3326 0 3437.9)
(14851 72.063 0 -2.3926 0 3426.7)
(14801 74.916 0 -2.4526 0 3415.1)
(14749 77.832 0 -2.5125 0 3403)
(14695 80.81 0 -2.5721 0 3390.5)
(14638 83.851 0 -2.6311 0 3377.5)
(14580 86.954 0 -2.6895 0 3364)
(14519 90.116 0 -2.747 0 3350)
(14457 93.338 0 -2.8035 0 3335.6)
(14392 96.618 0 -2.8587 0 3320.6)
(14325 99.955 0 -2.913 0 3305.2)
(14256 103.35 0 -2.9667 0 3289.2)
(14185 106.79 0 -3.0197 0 3272.7)
(14111 110.29 0 -3.0711 0 3255.6)
(14035 113.84 0 -3.1211 0 3238.1)
(13956 117.44 0 -3.1729 0 3219.9)
(13875 121.09 0 -3.228 0 3201.2)
(13792 124.81 0 -3.2837 0 3181.9)
(13706 128.58 0 -3.331 0 3162.1)
(13617 132.39 0 -3.3662 0 3141.6)
(13526 136.23 0 -3.3867 0 3120.6)
(13432 140.07 0 -3.3972 0 3099)
(13337 143.9 0 -3.3991 0 3076.9)
(13238 147.7 0 -3.403 0 3054.1)
(13137 151.51 0 -3.4388 0 3030.8)
(13033 155.37 0 -3.5058 0 3006.7)
(12926 159.32 0 -3.5779 0 2982.2)
(12817 163.34 0 -3.634 0 2956.9)
(12705 167.41 0 -3.6667 0 2931.1)
(12590 171.49 0 -3.6768 0 2904.6)
(12473 175.56 0 -3.6932 0 2877.5)
(12353 179.65 0 -3.721 0 2849.8)
(12230 183.74 0 -3.7378 0 2821.4)
(12104 187.82 0 -3.7439 0 2792.4)
(11976 191.9 0 -3.7453 0 2762.8)
(11845 195.97 0 -3.7463 0 2732.5)
(11711 200.02 0 -3.748 0 2701.6)
(11574 204.06 0 -3.7501 0 2670.1)
(11435 208.08 0 -3.7523 0 2637.9)
(11293 212.09 0 -3.7549 0 2605.1)
(11148 216.08 0 -3.7585 0 2571.7)
(11000 220.05 0 -3.7639 0 2537.6)
(10850 224.01 0 -3.7719 0 2503)
(10697 227.95 0 -3.7836 0 2467.7)
(10541 231.89 0 -3.7999 0 2431.7)
(10383 235.81 0 -3.8181 0 2395.2)
(10222 239.72 0 -3.8326 0 2358.1)
(10058 243.64 0 -3.8435 0 2320.3)
(9891.9 247.54 0 -3.8481 0 2281.9)
(9722.8 251.4 0 -3.8431 0 2242.8)
(9551.2 255.21 0 -3.8193 0 2203.2)
(9377 258.91 0 -3.7531 0 2163.1)
(9200.3 262.48 0 -3.6733 0 2122.3)
(9021.5 265.94 0 -3.633 0 2081)
(8840.2 269.32 0 -3.6231 0 2039.2)
(8656.6 272.64 0 -3.6148 0 1996.8)
(8470.7 275.91 0 -3.5816 0 1953.9)
(8282.5 279.06 0 -3.4919 0 1910.5)
(8092.1 282.03 0 -3.3553 0 1866.6)
(7900 284.8 0 -3.2188 0 1822.3)
(7706.1 287.36 0 -3.0764 0 1777.6)
(7510.5 289.66 0 -2.9053 0 1732.5)
(7313.4 291.68 0 -2.709 0 1687.1)
(7115 293.38 0 -2.4915 0 1641.4)
(6915.7 294.77 0 -2.2569 0 1595.4)
(6715.5 295.83 0 -2.0212 0 1549.3)
(6514.7 296.56 0 -1.8015 0 1503)
(6313.5 297 0 -1.6023 0 1456.6)
(6112.1 297.2 0 -1.4264 0 1410.2)
(5910.4 297.15 0 -1.2399 0 1363.6)
(5708.8 296.82 0 -0.79337 0 1317.2)
(5506.4 295.73 0 0.37639 0 1270.8)
(5303.7 293.16 0 2.5203 0 1224.5)
(5100.5 288.28 0 5.3476 0 1178.3)
(4899.1 280.53 0 8.0707 0 1132.4)
(4703.8 269.41 0 8.553 0 1087.5)
(4535.2 257.12 0 4.1477 0 1047.6)
(4380.6 248.76 0 -4.5597 0 1009.9)
(4221.8 249.92 0 -13.024 0 971.27)
(4050.3 260.99 0 -15.88 0 931.02)
(3847.7 275.31 0 -10.066 0 885.6)
(3612 284.16 0 0.22084 0 833.6)
(3415.6 285.4 0 7.773 0 790.01)
(3225.7 276.81 0 11.192 0 746.98)
(3046.9 264.11 0 11.8 0 705.85)
(2875.9 249.89 0 9.8924 0 665.95)
(2721.9 238.04 0 5.9552 0 629.5)
(2564.2 227.55 0 1.0671 0 591.98)
(2423.6 221.85 0 -2.4451 0 558.73)
(2261.9 216.96 0 -1.6254 0 521.61)
(2107.4 211.47 0 2.863 0 486.99)
(1949 202.12 0 6.9947 0 451.38)
(1820.2 193.33 0 7.0853 0 421.67)
(1696.7 185.26 0 5.0225 0 392.71)
(1572.8 177.14 0 4.4683 0 363.98)
(1452.8 168.45 0 5.6483 0 336.57)
(1337.7 158.8 0 6.957 0 310.29)
(1233.5 149.39 0 6.8634 0 286.23)
(1136.5 140.85 0 5.4797 0 263.52)
(1045.3 133.47 0 4.072 0 242.16)
(956.33 126.75 0 3.5056 0 221.5)
(871.64 120.39 0 3.7281 0 202.01)
(791.83 113.9 0 4.2978 0 183.72)
(716.71 107.07 0 4.8832 0 166.52)
(646.59 100.01 0 5.2611 0 150.43)
(582.33 93.068 0 5.3646 0 135.62)
(522.55 86.125 0 5.3747 0 121.83)
(467.56 79.128 0 5.5502 0 109.18)
(416.45 71.753 0 6.0349 0 97.496)
(370.06 63.982 0 6.8266 0 86.974)
(327.91 55.685 0 7.671 0 77.443)
(290.9 47.364 0 8.0766 0 68.994)
(258.18 39.698 0 7.3285 0 61.272)
(229.17 33.758 0 4.7159 0 53.973)
(204.25 30.451 0 0.12907 0 47.164)
(180.41 29.889 0 -4.9703 0 40.486)
(159.16 31.335 0 -7.228 0 35.061)
(135.68 30.264 0 -4.0305 0 30.38)
(119.8 27.429 0 1.1848 0 27.919)
(105.18 23.096 0 4.7867 0 25.378)
(96.036 19.277 0 5.5074 0 23.433)
(87.502 15.776 0 4.2378 0 21.171)
(81.851 13.494 0 2.6076 0 19.49)
(73.571 11.431 0 1.4392 0 17.31)
(66.398 9.8266 0 0.98613 0 15.55)
(60.243 8.5904 0 0.79344 0 14.085)
(54.902 7.6032 0 0.67813 0 12.826)
(50.196 6.7847 0 0.58692 0 11.719)
(46.003 6.0881 0 0.50963 0 10.734)
(42.24 5.4861 0 0.4447 0 9.8504)
(38.85 4.9609 0 0.39052 0 9.0556)
(35.785 4.4991 0 0.34512 0 8.3377)
(33.005 4.0908 0 0.30673 0 7.6874)
(30.478 3.7278 0 0.27391 0 7.0965)
(28.175 3.4038 0 0.24554 0 6.5585)
(26.072 3.1135 0 0.22076 0 6.0675)
(24.148 2.8528 0 0.19893 0 5.6185)
(22.385 2.6181 0 0.17957 0 5.2072)
(20.767 2.4065 0 0.16233 0 4.8298)
(19.279 2.2153 0 0.14693 0 4.483)
(17.909 2.0424 0 0.13318 0 4.1637)
(16.646 1.8858 0 0.12089 0 3.8693)
(15.48 1.7438 0 0.10991 0 3.5976)
(14.401 1.6147 0 0.10011 0 3.3464)
(13.402 1.4973 0 0.091356 0 3.1137)
(12.475 1.3903 0 0.083525 0 2.8981)
(11.615 1.2926 0 0.076513 0 2.6979)
(10.815 1.2033 0 0.070224 0 2.5119)
(10.07 1.1216 0 0.064576 0 2.3388)
(9.3761 1.0465 0 0.059496 0 2.1775)
(8.7288 0.97764 0 0.05492 0 2.027)
(8.1242 0.91426 0 0.050792 0 1.8865)
(7.5589 0.85586 0 0.047064 0 1.7552)
(7.03 0.80197 0 0.043693 0 1.6324)
(6.5345 0.75218 0 0.040641 0 1.5173)
(6.07 0.7061 0 0.037874 0 1.4095)
(5.6342 0.66339 0 0.035363 0 1.3084)
(5.2249 0.62374 0 0.033081 0 1.2134)
(4.8403 0.58689 0 0.031007 0 1.1241)
(4.4786 0.55257 0 0.029119 0 1.0402)
(4.1383 0.52056 0 0.027401 0 0.96131)
(3.8178 0.49065 0 0.025839 0 0.88701)
(3.5161 0.46265 0 0.02442 0 0.81703)
(3.2317 0.43639 0 0.023133 0 0.75111)
(2.9637 0.4117 0 0.021968 0 0.689)
(2.711 0.38844 0 0.020917 0 0.63045)
(2.4729 0.36647 0 0.019972 0 0.57527)
(2.2484 0.34565 0 0.019127 0 0.52327)
(2.0368 0.32586 0 0.018376 0 0.47428)
(1.8376 0.30699 0 0.017712 0 0.42815)
(1.6501 0.28894 0 0.01713 0 0.38475)
(1.4739 0.2716 0 0.016624 0 0.34396)
(1.3084 0.25488 0 0.01619 0 0.30567)
(1.1533 0.2387 0 0.015819 0 0.26979)
(1.0082 0.22298 0 0.015508 0 0.23624)
(0.87282 0.20765 0 0.015249 0 0.20494)
(0.74693 0.19265 0 0.015034 0 0.17584)
(0.63028 0.17793 0 0.014858 0 0.14888)
(0.52268 0.16343 0 0.014711 0 0.12401)
(0.42396 0.14913 0 0.014586 0 0.1012)
(0.33397 0.13499 0 0.014473 0 0.080411)
(0.25259 0.12099 0 0.014362 0 0.061604)
(0.17967 0.10715 0 0.014244 0 0.044749)
(0.11509 0.093443 0 0.014107 0 0.029816)
(0.058732 0.079906 0 0.013939 0 0.01677)
(0.010433 0.066567 0 0.013727 0 0.0055753)
(-0.029974 0.053471 0 0.013456 0 -0.003812)
(-0.062692 0.040682 0 0.01311 0 -0.011442)
(-0.087966 0.028284 0 0.012669 0 -0.017376)
(-0.1061 0.016381 0 0.01211 0 -0.021689)
(-0.11746 0.0051067 0 0.011402 0 -0.024474)
(-0.12247 -0.0053766 0 0.010494 0 -0.025841)
(-0.12165 -0.014868 0 0.0093305 0 -0.025919)
(-0.1156 -0.023158 0 0.0078922 0 -0.024857)
(-0.10514 -0.03009 0 0.0062914 0 -0.022811)
(-0.091492 -0.03564 0 0.0047581 0 -0.020015)
(-0.075866 -0.03927 0 0.0029634 0 -0.016824)
(-0.056678 -0.037662 0 -0.0003304 0 -0.013156)
(-0.039895 -0.033094 0 -0.004921 0 -0.010342)
(-0.027573 -0.028948 0 -0.010493 0 -0.0087845)
(-0.01467 -0.019337 0 -0.014664 0 -0.0067694)
(-0.002531 -0.0046613 0 -0.0098643 0 -0.0028605)
(52473 11679 0 11218 0 14698)
(55135 9484.6 0 5546.5 0 14003)
(54899 7386.8 0 2575.3 0 13263)
(53495 5826.6 0 1296 0 12644)
(51807 4813.5 0 757.29 0 12130)
(50221 4189.5 0 504.3 0 11706)
(48800 3793.5 0 358.86 0 11344)
(47484 3520.4 0 266 0 11019)
(46252 3317.1 0 208.88 0 10722)
(45089 3155.4 0 175.38 0 10446)
(43986 3019.2 0 155.9 0 10187)
(42934 2899.1 0 143.97 0 9941.1)
(41927 2789.2 0 136.05 0 9706.8)
(40959 2686.2 0 130.46 0 9482.2)
(40028 2588.1 0 126.21 0 9266.4)
(39131 2493.9 0 122.57 0 9058.6)
(38267 2402.9 0 119.1 0 8858.3)
(37433 2315.1 0 115.58 0 8665.1)
(36629 2230.2 0 111.91 0 8478.6)
(35853 2148.3 0 108.09 0 8298.7)
(35104 2069.4 0 104.14 0 8125)
(34381 1993.5 0 100.11 0 7957.2)
(33683 1920.5 0 96.037 0 7795.2)
(33009 1850.6 0 91.975 0 7638.8)
(32359 1783.6 0 87.966 0 7487.7)
(31730 1719.5 0 84.047 0 7341.7)
(31122 1658.2 0 80.25 0 7200.6)
(30535 1599.6 0 76.6 0 7064.2)
(29967 1543.6 0 73.119 0 6932.4)
(29418 1490 0 69.82 0 6805)
(28887 1438.8 0 66.714 0 6681.7)
(28374 1389.8 0 63.806 0 6562.5)
(27877 1342.8 0 61.097 0 6447.1)
(27395 1297.7 0 58.586 0 6335.5)
(26930 1254.4 0 56.267 0 6227.5)
(26479 1212.8 0 54.134 0 6123)
(26042 1172.6 0 52.179 0 6021.8)
(25620 1133.8 0 50.394 0 5923.9)
(25211 1096.3 0 48.769 0 5829.1)
(24815 1059.9 0 47.294 0 5737.4)
(24432 1024.5 0 45.959 0 5648.7)
(24061 990.1 0 44.75 0 5562.9)
(23703 956.54 0 43.651 0 5480)
(23356 923.78 0 42.645 0 5399.8)
(23021 891.73 0 41.711 0 5322.3)