/*--------------------------------*- C++ -*----------------------------------*\
| =========                 |                                                 |
| \\      /  F ield         | OpenFOAM: The Open Source CFD Toolbox           |
|  \\    /   O peration     | Version:  5.x                                   |
|   \\  /    A nd           | Web:      www.OpenFOAM.org                      |
|    \\/     M anipulation  |                                                 |
\*---------------------------------------------------------------------------*/
FoamFile
{
    version     2.0;
    format      ascii;
    class       volScalarField;
    location    "40";
    object      gamma;
}
// * * * * * * * * * * * * * * * * * * * * * * * * * * * * * * * * * * * * * //

dimensions      [0 0 0 0 0 0 0];

internalField   nonuniform List<scalar> 
86400
(
0.02422
0.02104
0.01916
0.01739
0.01753
0.01811
0.01884
0.02046
0.02427
0.02944
0.03745
0.04565
0.05502
0.06145
0.07111
0.0754
0.07922
0.07232
0.06627
0.06091
0.05963
0.05896
0.0597
0.05749
0.05545
0.0592
0.06079
0.06241
0.06171
0.06106
0.05942
0.05991
0.06036
0.06084
0.06146
0.06226
0.05766
0.05087
0.04272
0.03878
0.03728
0.03949
0.04107
0.04186
0.0449
0.05028
0.05853
0.06529
0.0701
0.07005
0.0704
0.07102
0.07173
0.07235
0.07275
0.0757
0.08011
0.08549
0.09035
0.09367
0.0934
0.09658
0.1018
0.1144
0.1313
0.1498
0.1625
0.1719
0.1722
0.1736
0.1758
0.1781
0.1803
0.182
0.1866
0.1932
0.2011
0.2126
0.225
0.2362
0.246
0.2539
0.2574
0.261
0.2642
0.2662
0.2678
0.2689
0.27
0.2712
0.2723
0.2776
0.2852
0.2952
0.3028
0.3078
0.309
0.3109
0.3131
0.3162
0.3193
0.323
0.3271
0.3315
0.3343
0.3402
0.3479
0.3581
0.3662
0.3716
0.3723
0.3722
0.372
0.3716
0.3711
0.3708
0.3706
0.3706
0.3706
0.3706
0.3706
0.3706
0.3707
0.3707
0.3707
0.3708
0.3717
0.3734
0.3753
0.377
0.3782
0.3785
0.3776
0.376
0.3743
0.3729
0.3722
0.3737
0.3763
0.3795
0.3828
0.3835
0.3822
0.3792
0.3773
0.3761
0.3763
0.3761
0.3761
0.3744
0.3727
0.3719
0.3744
0.382
0.399
0.4261
0.4631
0.5061
0.8077
0.9389
0.02179
0.01902
0.01744
0.01596
0.01677
0.01844
0.02076
0.02441
0.03043
0.03727
0.04729
0.05663
0.06658
0.07444
0.08639
0.09392
0.1001
0.09764
0.09332
0.08772
0.0887
0.08983
0.09145
0.0889
0.0851
0.08352
0.08338
0.08372
0.08462
0.08486
0.0833
0.08306
0.08248
0.08201
0.08201
0.08282
0.07899
0.0732
0.0669
0.06389
0.06277
0.0653
0.06732
0.06789
0.07015
0.07522
0.08136
0.0869
0.09082
0.0908
0.09126
0.09204
0.09294
0.09378
0.09438
0.09782
0.1029
0.1102
0.1159
0.1198
0.1198
0.1252
0.1337
0.1514
0.1741
0.2014
0.2169
0.2282
0.2291
0.2317
0.2352
0.2392
0.243
0.2443
0.2474
0.2525
0.2604
0.2708
0.2828
0.2913
0.2997
0.3067
0.3109
0.315
0.3186
0.3208
0.3226
0.3235
0.3245
0.3257
0.3268
0.3323
0.3401
0.3489
0.3566
0.3618
0.3636
0.3663
0.3693
0.3724
0.3751
0.3777
0.3805
0.3828
0.3841
0.3869
0.3906
0.3953
0.4002
0.4034
0.4041
0.4042
0.4042
0.4043
0.4043
0.4044
0.4047
0.405
0.4054
0.4057
0.406
0.4063
0.4066
0.4069
0.4072
0.4074
0.4088
0.4108
0.4131
0.4151
0.4167
0.4171
0.4164
0.4151
0.4136
0.4125
0.4119
0.4133
0.4154
0.418
0.4202
0.421
0.4204
0.4192
0.4183
0.4176
0.4177
0.4177
0.4181
0.4177
0.4179
0.4194
0.425
0.4364
0.4565
0.4859
0.5238
0.5671
0.698
0.809
0.02082
0.01829
0.0169
0.01601
0.01794
0.02127
0.02583
0.03237
0.0413
0.05058
0.06205
0.07268
0.08414
0.09537
0.1082
0.1193
0.1306
0.1349
0.135
0.1344
0.1354
0.1395
0.1472
0.1482
0.1464
0.1461
0.1443
0.1423
0.1428
0.1429
0.1417
0.141
0.1393
0.1379
0.1372
0.1381
0.1349
0.1296
0.1247
0.1246
0.1261
0.1306
0.1311
0.1304
0.1309
0.136
0.1416
0.1466
0.1498
0.1499
0.1506
0.1517
0.153
0.1543
0.1553
0.1599
0.1663
0.1741
0.181
0.1861
0.1866
0.1958
0.2101
0.2399
0.272
0.304
0.3221
0.3358
0.338
0.3425
0.3484
0.3557
0.3633
0.3621
0.359
0.3559
0.3551
0.3592
0.3705
0.3774
0.3839
0.3892
0.3928
0.3966
0.4002
0.4024
0.4051
0.4075
0.4082
0.4077
0.4064
0.408
0.4126
0.4199
0.4262
0.4305
0.4329
0.4361
0.44
0.4432
0.4457
0.4474
0.4496
0.4511
0.4511
0.4505
0.4501
0.4503
0.4515
0.4529
0.4535
0.4539
0.4543
0.4547
0.4552
0.4558
0.4564
0.4571
0.4578
0.4584
0.4589
0.4595
0.4601
0.4606
0.4611
0.4616
0.4631
0.4651
0.4677
0.4698
0.4713
0.4719
0.4716
0.4707
0.4694
0.4687
0.4683
0.4694
0.4706
0.4722
0.4736
0.4743
0.4742
0.4738
0.4734
0.4732
0.4734
0.4738
0.4749
0.4761
0.4784
0.483
0.4915
0.5054
0.5267
0.5555
0.5911
0.6312
0.6721
0.7013
0.0203
0.01834
0.01758
0.01786
0.02175
0.02801
0.03644
0.04777
0.06068
0.07493
0.08972
0.1025
0.1128
0.1237
0.135
0.1517
0.1733
0.1934
0.2094
0.2245
0.2393
0.2603
0.2859
0.2958
0.294
0.2848
0.2734
0.2668
0.2684
0.2702
0.2715
0.2694
0.2642
0.2602
0.2577
0.2586
0.2599
0.2641
0.2739
0.2923
0.308
0.3207
0.3231
0.3192
0.3118
0.3108
0.309
0.3075
0.3068
0.3072
0.3085
0.3104
0.3126
0.315
0.3171
0.3238
0.3333
0.3443
0.3546
0.3621
0.3644
0.381
0.404
0.4369
0.4691
0.4953
0.5078
0.5166
0.5193
0.5241
0.5299
0.5366
0.5403
0.5326
0.5179
0.5002
0.4871
0.4815
0.4847
0.4869
0.488
0.4897
0.4925
0.4958
0.4992
0.5022
0.505
0.5079
0.5084
0.5075
0.5057
0.5051
0.5068
0.5119
0.5162
0.5196
0.5225
0.526
0.5298
0.533
0.5355
0.5367
0.5374
0.5366
0.5341
0.5297
0.5254
0.5223
0.5209
0.5209
0.5215
0.5221
0.5229
0.5238
0.5248
0.5258
0.5268
0.5278
0.5287
0.5295
0.5304
0.5312
0.532
0.5328
0.5335
0.5342
0.5356
0.5374
0.5393
0.5411
0.5424
0.5432
0.5433
0.5431
0.5427
0.5423
0.542
0.5425
0.5431
0.5441
0.5448
0.5454
0.5458
0.5461
0.5461
0.5466
0.547
0.5481
0.5501
0.5529
0.5574
0.5646
0.5753
0.5908
0.6116
0.6377
0.6684
0.702
0.736
0.7616
0.02262
0.02156
0.02191
0.02421
0.03146
0.04236
0.05421
0.07038
0.08662
0.1042
0.1186
0.1302
0.1355
0.1448
0.1554
0.1773
0.2087
0.2466
0.2838
0.3214
0.3579
0.3976
0.4331
0.4633
0.4852
0.4981
0.5042
0.5073
0.5095
0.5001
0.4835
0.4592
0.434
0.4158
0.4125
0.4137
0.4198
0.4456
0.4849
0.5304
0.5655
0.584
0.5852
0.5815
0.5766
0.5762
0.5757
0.5755
0.5756
0.5761
0.5769
0.578
0.5792
0.5806
0.582
0.5834
0.5848
0.5862
0.5878
0.5896
0.5916
0.5994
0.6106
0.6228
0.6334
0.6406
0.643
0.6423
0.64
0.6382
0.637
0.6376
0.6372
0.6271
0.6079
0.5849
0.5663
0.5572
0.558
0.5612
0.5619
0.5632
0.5653
0.5682
0.5713
0.5749
0.5778
0.581
0.5822
0.5817
0.5795
0.5792
0.5811
0.586
0.5904
0.5942
0.5975
0.6011
0.6049
0.6078
0.61
0.6106
0.6094
0.6066
0.6022
0.597
0.5921
0.589
0.5873
0.5872
0.5876
0.5885
0.5895
0.5905
0.5916
0.5928
0.5939
0.5949
0.5959
0.5968
0.5977
0.5986
0.5995
0.6003
0.6011
0.6019
0.6029
0.6041
0.6054
0.6068
0.6079
0.6088
0.6092
0.6094
0.6093
0.6091
0.6091
0.6092
0.6093
0.6096
0.6097
0.61
0.6102
0.6103
0.6105
0.6112
0.6121
0.6138
0.6166
0.6208
0.6268
0.6354
0.6468
0.6614
0.6793
0.7003
0.7239
0.7493
0.7747
0.7951
0.02644
0.02718
0.02978
0.03601
0.04802
0.06266
0.07642
0.09391
0.1097
0.1279
0.1387
0.141
0.1379
0.141
0.1509
0.1776
0.2171
0.2654
0.3203
0.3862
0.4433
0.4903
0.5268
0.5433
0.5439
0.5369
0.5265
0.5219
0.525
0.5092
0.4833
0.4469
0.411
0.3844
0.3817
0.3835
0.3981
0.4451
0.5078
0.5717
0.6196
0.6471
0.655
0.6581
0.659
0.6597
0.6604
0.6614
0.6626
0.6638
0.6652
0.6667
0.6682
0.6699
0.6717
0.6735
0.6754
0.6773
0.6793
0.6813
0.6835
0.6856
0.6878
0.6907
0.6941
0.6977
0.7009
0.6991
0.6941
0.6882
0.6831
0.6806
0.6782
0.6681
0.6486
0.6296
0.6129
0.6062
0.6071
0.6109
0.612
0.6138
0.6157
0.619
0.6222
0.6259
0.6288
0.6319
0.6331
0.6333
0.633
0.6336
0.6359
0.6403
0.6446
0.6484
0.6517
0.6548
0.6578
0.6595
0.6603
0.6594
0.6564
0.6523
0.6471
0.6421
0.6386
0.6367
0.6358
0.6361
0.6369
0.6378
0.6388
0.6399
0.641
0.642
0.643
0.644
0.645
0.6459
0.6468
0.6477
0.6485
0.6493
0.65
0.6506
0.6512
0.6518
0.6524
0.6531
0.6538
0.6546
0.6552
0.6557
0.6561
0.6565
0.657
0.6571
0.6572
0.6572
0.6574
0.6574
0.6577
0.6579
0.6584
0.6593
0.6608
0.6631
0.6664
0.6711
0.6775
0.6859
0.6966
0.7093
0.7239
0.7402
0.7578
0.776
0.7939
0.8102
0.03224
0.03491
0.0402
0.04969
0.06505
0.08077
0.09455
0.11
0.1231
0.1349
0.1305
0.1201
0.1099
0.1122
0.1286
0.1626
0.209
0.2644
0.3282
0.389
0.4348
0.4654
0.4851
0.4851
0.4787
0.4605
0.4399
0.4298
0.4362
0.4161
0.3793
0.3238
0.2855
0.2633
0.2636
0.2681
0.2894
0.353
0.4479
0.5382
0.5979
0.6282
0.636
0.6398
0.6423
0.6444
0.6467
0.6492
0.6518
0.6546
0.6575
0.6605
0.6635
0.6667
0.6698
0.673
0.6761
0.6792
0.6822
0.6852
0.6891
0.6933
0.6975
0.7023
0.7064
0.7096
0.7125
0.7101
0.7042
0.6954
0.6886
0.6841
0.6804
0.6727
0.6597
0.647
0.6366
0.6343
0.6358
0.6398
0.6416
0.6439
0.6467
0.6499
0.6534
0.6573
0.6604
0.6632
0.6646
0.6655
0.6663
0.6676
0.6701
0.6737
0.6772
0.6806
0.6838
0.6868
0.6888
0.689
0.6882
0.6855
0.6814
0.6767
0.6728
0.6693
0.6675
0.667
0.667
0.6676
0.6684
0.6693
0.6702
0.6712
0.6721
0.673
0.6738
0.6746
0.6754
0.6762
0.677
0.6777
0.6784
0.679
0.6796
0.6801
0.6807
0.6813
0.682
0.6827
0.6833
0.6841
0.6848
0.6853
0.6858
0.6861
0.6863
0.6863
0.6865
0.6865
0.6866
0.6868
0.6873
0.6877
0.6885
0.6898
0.6918
0.6946
0.6983
0.7032
0.7096
0.7175
0.7269
0.7378
0.7496
0.7623
0.7754
0.7884
0.8008
0.8119
0.04352
0.04754
0.05466
0.06644
0.08335
0.0993
0.1136
0.1275
0.1311
0.1222
0.1029
0.08658
0.07822
0.0859
0.1107
0.15
0.199
0.2357
0.2631
0.2722
0.2784
0.2825
0.3024
0.3036
0.3011
0.2798
0.2649
0.2605
0.2719
0.2626
0.2404
0.2135
0.191
0.1778
0.1779
0.1813
0.201
0.2526
0.3419
0.4481
0.5221
0.5568
0.5683
0.5757
0.581
0.5856
0.5903
0.5951
0.6002
0.6054
0.6108
0.6162
0.6217
0.6272
0.6326
0.6378
0.6429
0.6478
0.6524
0.6568
0.6622
0.6688
0.6763
0.6845
0.6915
0.6963
0.6993
0.6968
0.6909
0.684
0.6776
0.6727
0.6704
0.6663
0.66
0.6548
0.6517
0.6528
0.6552
0.6592
0.6617
0.6645
0.6676
0.6709
0.6745
0.6783
0.6812
0.6833
0.685
0.6867
0.6889
0.6918
0.6953
0.6987
0.7018
0.7048
0.7069
0.7083
0.7082
0.7062
0.7032
0.6988
0.6941
0.6902
0.6876
0.6857
0.6854
0.686
0.6866
0.6874
0.6882
0.689
0.6898
0.6907
0.6914
0.6922
0.693
0.6937
0.6944
0.6951
0.6958
0.6964
0.697
0.6976
0.6982
0.6988
0.6996
0.7002
0.701
0.7019
0.7028
0.7038
0.7049
0.7055
0.7058
0.706
0.7062
0.7062
0.7063
0.7065
0.7068
0.7072
0.7079
0.7087
0.71
0.7117
0.714
0.7171
0.7211
0.7259
0.7319
0.739
0.7472
0.7562
0.7657
0.7754
0.7851
0.7944
0.8028
0.8098
0.05942
0.06353
0.06938
0.08086
0.09912
0.1192
0.1366
0.1406
0.1239
0.09729
0.07239
0.05806
0.05712
0.07054
0.1006
0.1291
0.1467
0.138
0.1241
0.1088
0.1089
0.1093
0.1258
0.1386
0.1514
0.155
0.1548
0.1561
0.1649
0.1648
0.1575
0.1468
0.1359
0.13
0.13
0.1325
0.1483
0.1855
0.2495
0.337
0.4228
0.4619
0.4801
0.4925
0.5014
0.5091
0.5165
0.5241
0.5319
0.54
0.5482
0.5565
0.5648
0.573
0.5795
0.5849
0.5896
0.5955
0.605
0.6166
0.6293
0.6421
0.654
0.6637
0.6713
0.6756
0.6777
0.6761
0.6727
0.6681
0.6636
0.6603
0.6604
0.661
0.662
0.6636
0.6659
0.6688
0.6721
0.6758
0.6788
0.6819
0.6849
0.688
0.691
0.6942
0.6974
0.6996
0.7014
0.7029
0.7048
0.7073
0.7106
0.7136
0.7163
0.7181
0.7185
0.7179
0.7156
0.7119
0.7076
0.7036
0.6999
0.6978
0.697
0.6968
0.6973
0.698
0.6987
0.6995
0.7003
0.7011
0.7019
0.7026
0.7033
0.7041
0.7048
0.7055
0.7062
0.7069
0.7075
0.7081
0.7088
0.7094
0.7102
0.711
0.7122
0.7133
0.7145
0.7158
0.7169
0.7181
0.7192
0.7199
0.7201
0.7202
0.7201
0.7203
0.7207
0.7212
0.7217
0.7225
0.7235
0.7248
0.7263
0.7284
0.731
0.7343
0.7382
0.7428
0.7482
0.7543
0.7611
0.7684
0.776
0.7835
0.7907
0.7974
0.8031
0.8074
0.07403
0.07563
0.0814
0.094
0.1162
0.1402
0.1488
0.1349
0.1036
0.07206
0.05117
0.04331
0.04676
0.06191
0.08344
0.08579
0.0722
0.04954
0.03527
0.02766
0.02923
0.03427
0.04607
0.05955
0.07445
0.08466
0.09174
0.09822
0.1064
0.1128
0.1169
0.1191
0.1196
0.1202
0.1203
0.1211
0.1342
0.1608
0.206
0.2644
0.3258
0.362
0.3885
0.4057
0.4183
0.4289
0.4389
0.4489
0.4592
0.468
0.4761
0.484
0.4923
0.5012
0.5087
0.5196
0.5326
0.5491
0.57
0.5909
0.6075
0.6226
0.635
0.6447
0.6524
0.6563
0.658
0.6587
0.6595
0.6605
0.6618
0.6631
0.665
0.6673
0.67
0.6724
0.6751
0.678
0.681
0.684
0.687
0.6901
0.6932
0.6963
0.6995
0.7029
0.7065
0.7089
0.7107
0.712
0.7137
0.7158
0.7188
0.7208
0.7222
0.7223
0.7207
0.7183
0.7145
0.7104
0.7067
0.7041
0.7023
0.702
0.7024
0.7031
0.7038
0.7046
0.7054
0.7062
0.7069
0.7077
0.7084
0.7092
0.71
0.7107
0.7115
0.7122
0.7129
0.7136
0.7143
0.715
0.7158
0.7169
0.7182
0.7197
0.7214
0.7231
0.7244
0.7258
0.7271
0.7283
0.7293
0.7298
0.7298
0.7298
0.73
0.7305
0.7313
0.7321
0.733
0.7341
0.7354
0.737
0.7389
0.7412
0.7439
0.7472
0.7509
0.7551
0.7598
0.765
0.7705
0.7763
0.7821
0.7878
0.7931
0.7978
0.8015
0.804
0.08117
0.08167
0.08774
0.1028
0.1294
0.1507
0.1434
0.1167
0.08367
0.05639
0.04288
0.03934
0.04472
0.05402
0.05532
0.03924
0.02254
0.01135
0.007354
0.006387
0.007788
0.01089
0.01714
0.02632
0.0387
0.05137
0.06331
0.07411
0.08363
0.09166
0.09778
0.102
0.1046
0.1064
0.1085
0.111
0.1231
0.1455
0.1831
0.231
0.2826
0.316
0.3422
0.3596
0.3733
0.3825
0.3895
0.3958
0.403
0.4089
0.4158
0.4222
0.4374
0.4579
0.4784
0.5027
0.5253
0.5466
0.5723
0.5979
0.6158
0.6296
0.6399
0.6459
0.6506
0.6529
0.6539
0.6549
0.6568
0.6591
0.6612
0.663
0.6652
0.6678
0.6706
0.6736
0.6767
0.6797
0.6829
0.686
0.6892
0.6925
0.6958
0.6992
0.7027
0.7063
0.7101
0.7126
0.7144
0.7156
0.7169
0.7186
0.7206
0.7212
0.7209
0.7192
0.7161
0.7125
0.709
0.7059
0.704
0.7033
0.7031
0.7037
0.7044
0.7052
0.706
0.7068
0.7076
0.7084
0.7092
0.7101
0.7109
0.7117
0.7125
0.7133
0.714
0.7148
0.7156
0.7165
0.7175
0.7189
0.7203
0.7222
0.7241
0.7259
0.7279
0.7297
0.7312
0.7327
0.7339
0.7348
0.7355
0.7359
0.7358
0.736
0.7366
0.7375
0.7387
0.74
0.7412
0.7426
0.7442
0.746
0.7481
0.7505
0.7532
0.7563
0.7597
0.7634
0.7675
0.7717
0.7761
0.7806
0.785
0.7892
0.7929
0.796
0.7982
0.7992
0.08182
0.08393
0.09531
0.1149
0.1433
0.1573
0.135
0.1031
0.07493
0.05565
0.04588
0.0438
0.04424
0.03902
0.02561
0.01205
0.004952
0.002444
0.001711
0.001805
0.00271
0.004709
0.008734
0.01496
0.0232
0.03213
0.0412
0.05031
0.05967
0.06839
0.07611
0.08377
0.0909
0.09704
0.103
0.1077
0.1182
0.136
0.1656
0.2002
0.2385
0.2636
0.2838
0.2964
0.3067
0.3104
0.3104
0.3088
0.3089
0.319
0.3401
0.3635
0.4002
0.4367
0.4643
0.4963
0.5268
0.5536
0.5806
0.6043
0.6174
0.6271
0.6338
0.6373
0.641
0.6442
0.6462
0.6478
0.6497
0.6517
0.6541
0.6568
0.6598
0.663
0.6663
0.6696
0.673
0.6763
0.6797
0.6832
0.6868
0.6904
0.6941
0.6978
0.7017
0.7056
0.7095
0.712
0.7136
0.7143
0.7151
0.7158
0.7165
0.7155
0.7135
0.7103
0.7069
0.7038
0.7016
0.7001
0.6999
0.7005
0.7012
0.702
0.7029
0.7038
0.7046
0.7055
0.7064
0.7072
0.7081
0.709
0.7099
0.7108
0.7116
0.7125
0.7134
0.7146
0.716
0.7175
0.7193
0.7213
0.7232
0.7255
0.7278
0.7298
0.7318
0.7335
0.7349
0.7362
0.7373
0.7379
0.7382
0.7383
0.7387
0.7395
0.7408
0.7422
0.7437
0.7452
0.7466
0.7482
0.75
0.752
0.7542
0.7566
0.7592
0.7621
0.7651
0.7684
0.7717
0.7752
0.7787
0.7821
0.7853
0.7882
0.7906
0.7923
0.7933
0.7932
0.07666
0.08391
0.1015
0.1273
0.1577
0.1615
0.1323
0.104
0.08265
0.068
0.0595
0.05031
0.03638
0.01985
0.00807
0.002724
0.001111
0.0006518
0.0005977
0.0008163
0.001456
0.002826
0.005436
0.009459
0.01493
0.02115
0.02797
0.03549
0.04412
0.05304
0.06186
0.07139
0.08085
0.0905
0.1006
0.1095
0.1211
0.1344
0.1526
0.1723
0.1943
0.2089
0.221
0.228
0.2341
0.2414
0.2498
0.2578
0.2668
0.2862
0.312
0.3442
0.3912
0.4363
0.4718
0.5063
0.5377
0.5599
0.583
0.6022
0.6121
0.6189
0.623
0.6249
0.6271
0.6293
0.6317
0.6342
0.6368
0.6398
0.643
0.6465
0.6502
0.6539
0.6575
0.6613
0.665
0.6688
0.6727
0.6766
0.6806
0.6847
0.6889
0.693
0.6972
0.7012
0.705
0.7071
0.708
0.7079
0.7077
0.7073
0.7068
0.7047
0.7018
0.6986
0.696
0.6945
0.6939
0.6939
0.6946
0.6955
0.6964
0.6973
0.6983
0.6993
0.7002
0.7012
0.7022
0.7032
0.7041
0.7051
0.706
0.707
0.7083
0.7098
0.7113
0.7133
0.7153
0.7172
0.7196
0.7221
0.7245
0.727
0.7293
0.731
0.7327
0.7344
0.7358
0.7369
0.7376
0.7379
0.7381
0.7386
0.7398
0.7414
0.743
0.7447
0.7463
0.7479
0.7496
0.7514
0.7534
0.7554
0.7576
0.76
0.7624
0.765
0.7677
0.7704
0.7732
0.776
0.7786
0.7811
0.7833
0.7851
0.7865
0.7872
0.7871
0.7863
0.07329
0.0863
0.1114
0.1451
0.1807
0.177
0.1464
0.1209
0.1036
0.08273
0.06212
0.03744
0.01726
0.006072
0.001901
0.0006732
0.0003515
0.0002851
0.0003482
0.0005611
0.001041
0.002036
0.003855
0.006573
0.01021
0.01433
0.01921
0.02502
0.03229
0.04046
0.04927
0.05937
0.07081
0.08408
0.09774
0.1096
0.1197
0.1275
0.1358
0.1429
0.1506
0.1618
0.1772
0.1932
0.2088
0.2262
0.2388
0.2521
0.2649
0.2895
0.3182
0.3616
0.4107
0.454
0.4833
0.515
0.5441
0.5632
0.5787
0.5891
0.5933
0.5963
0.5996
0.6031
0.6065
0.6099
0.6132
0.6165
0.6202
0.6241
0.6281
0.6323
0.6365
0.6407
0.645
0.6494
0.6538
0.6581
0.6626
0.667
0.6716
0.6761
0.6807
0.6851
0.6894
0.6932
0.6962
0.6973
0.6972
0.696
0.6951
0.694
0.6928
0.6903
0.6878
0.6856
0.6845
0.6844
0.685
0.6858
0.6868
0.6879
0.689
0.69
0.6911
0.6922
0.6933
0.6944
0.6955
0.6966
0.6976
0.6987
0.7001
0.7018
0.7039
0.7063
0.7085
0.7109
0.7133
0.7158
0.7185
0.7213
0.7237
0.726
0.728
0.7295
0.731
0.7325
0.7337
0.7345
0.7351
0.7356
0.7363
0.7376
0.7395
0.7414
0.7433
0.7451
0.7468
0.7486
0.7505
0.7524
0.7545
0.7566
0.7587
0.761
0.7632
0.7656
0.7679
0.7702
0.7724
0.7745
0.7764
0.7781
0.7795
0.7805
0.781
0.7809
0.7802
0.7789
0.07204
0.0908
0.1229
0.1678
0.2119
0.2116
0.1869
0.1608
0.1299
0.08178
0.04299
0.01663
0.005229
0.001439
0.0005012
0.0002263
0.0001661
0.0001836
0.0002711
0.0004644
0.0008655
0.001633
0.002958
0.004876
0.00741
0.01044
0.01407
0.01853
0.0243
0.03114
0.03909
0.04884
0.06075
0.07446
0.08882
0.101
0.1124
0.1224
0.1319
0.1399
0.1461
0.1555
0.1717
0.1925
0.2134
0.2385
0.2566
0.282
0.3013
0.3302
0.3579
0.3924
0.4318
0.4677
0.4915
0.5144
0.5331
0.5433
0.5514
0.5578
0.5631
0.568
0.573
0.5778
0.5824
0.5867
0.5909
0.5953
0.6
0.6048
0.6098
0.6148
0.6198
0.6248
0.6298
0.6348
0.6399
0.645
0.65
0.6551
0.6601
0.665
0.6698
0.6743
0.6782
0.681
0.6825
0.6824
0.6813
0.6798
0.6786
0.6773
0.676
0.6744
0.6732
0.6725
0.6727
0.6735
0.6745
0.6756
0.6768
0.6781
0.6793
0.6806
0.6818
0.6831
0.6843
0.6855
0.6867
0.6882
0.6899
0.6917
0.694
0.6964
0.6991
0.702
0.7048
0.7074
0.7101
0.7126
0.7154
0.7182
0.7204
0.7223
0.7239
0.7252
0.7266
0.7282
0.7296
0.7306
0.7313
0.7321
0.7335
0.7354
0.7376
0.7397
0.7416
0.7435
0.7454
0.7474
0.7494
0.7515
0.7536
0.7557
0.7578
0.7599
0.762
0.764
0.766
0.7679
0.7696
0.7712
0.7725
0.7736
0.7743
0.7746
0.7746
0.7741
0.7732
0.7719
0.07201
0.09519
0.1336
0.196
0.2565
0.2731
0.2556
0.2226
0.1479
0.06575
0.02228
0.005343
0.001289
0.0004082
0.0001862
0.0001184
0.000118
0.0001561
0.0002416
0.0004149
0.000811
0.001651
0.003262
0.005811
0.009121
0.01246
0.01645
0.02129
0.02734
0.03448
0.04303
0.05371
0.06709
0.08255
0.09784
0.1082
0.1196
0.1307
0.1425
0.1532
0.1603
0.1696
0.1881
0.2184
0.2454
0.2776
0.2996
0.3256
0.3492
0.3752
0.3937
0.4153
0.4375
0.4562
0.469
0.4832
0.4964
0.5074
0.5162
0.5235
0.5302
0.5368
0.5431
0.5491
0.5548
0.5602
0.5656
0.5713
0.5772
0.5831
0.5892
0.5951
0.601
0.6068
0.6127
0.6185
0.6243
0.6301
0.6357
0.6413
0.6467
0.6519
0.6563
0.6601
0.6628
0.6642
0.6644
0.6634
0.6621
0.6606
0.6596
0.6587
0.6581
0.6578
0.658
0.6585
0.6596
0.6608
0.6621
0.6635
0.665
0.6664
0.6679
0.6693
0.6708
0.6721
0.6735
0.6751
0.677
0.6795
0.6821
0.6849
0.6877
0.6906
0.6937
0.6967
0.6995
0.7022
0.7049
0.7075
0.7102
0.7125
0.7143
0.7159
0.7175
0.7191
0.7208
0.7227
0.7242
0.7254
0.7263
0.7277
0.7295
0.7318
0.7341
0.7363
0.7383
0.7403
0.7424
0.7445
0.7466
0.7487
0.7508
0.7529
0.7549
0.7569
0.7588
0.7606
0.7623
0.7638
0.7651
0.7662
0.7671
0.7678
0.7682
0.7682
0.768
0.7676
0.7671
0.7635
0.06767
0.09342
0.1331
0.2141
0.2958
0.3555
0.3478
0.2816
0.1429
0.04376
0.009294
0.001796
0.0004369
0.0001768
0.0001099
9.465e-05
0.0001126
0.0001717
0.0003058
0.0005882
0.001278
0.002746
0.005311
0.009424
0.01484
0.01969
0.02538
0.03191
0.03935
0.04778
0.05758
0.06935
0.08357
0.0996
0.1139
0.1232
0.1356
0.1492
0.1685
0.1836
0.1939
0.2043
0.2238
0.2506
0.2778
0.3087
0.3296
0.3535
0.3758
0.3891
0.392
0.3963
0.4058
0.419
0.4359
0.4507
0.4625
0.4718
0.4797
0.4872
0.4956
0.5036
0.5112
0.5184
0.5254
0.5324
0.5394
0.5465
0.5538
0.5609
0.5679
0.5749
0.5816
0.5884
0.595
0.6015
0.608
0.6144
0.6206
0.6263
0.6314
0.636
0.6396
0.6423
0.644
0.6443
0.6433
0.6421
0.6409
0.6399
0.6396
0.6396
0.64
0.6408
0.6421
0.6435
0.645
0.6466
0.6483
0.65
0.6517
0.6534
0.6551
0.6567
0.6582
0.6601
0.6621
0.6648
0.6677
0.6712
0.6745
0.678
0.6811
0.6841
0.6869
0.6898
0.6926
0.6951
0.6977
0.7003
0.7026
0.7047
0.7065
0.7082
0.71
0.7119
0.7139
0.716
0.7176
0.7191
0.7204
0.7222
0.7243
0.7268
0.7292
0.7313
0.7335
0.7357
0.7379
0.7401
0.7423
0.7444
0.7465
0.7485
0.7504
0.7523
0.754
0.7555
0.7569
0.7581
0.7592
0.76
0.7608
0.7614
0.7618
0.7621
0.7624
0.7597
0.755
0.7442
0.06176
0.08729
0.1278
0.2238
0.3318
0.4439
0.4478
0.3384
0.1355
0.03118
0.005032
0.0009039
0.0002547
0.0001323
0.0001031
0.0001043
0.0001406
0.0002603
0.0005608
0.001253
0.002938
0.006145
0.01162
0.01955
0.02927
0.03665
0.04483
0.05372
0.06326
0.07334
0.08426
0.09771
0.1138
0.1305
0.1449
0.1537
0.1652
0.1795
0.1976
0.2146
0.2272
0.2361
0.2525
0.2737
0.2954
0.3127
0.3197
0.3267
0.334
0.3412
0.3492
0.3603
0.3752
0.3922
0.4096
0.4238
0.4343
0.4414
0.4474
0.4536
0.4615
0.4699
0.479
0.4881
0.4971
0.5059
0.5145
0.5231
0.5315
0.5396
0.5476
0.5554
0.5629
0.5701
0.577
0.5836
0.5901
0.5966
0.6032
0.609
0.6141
0.6182
0.621
0.6226
0.6229
0.6224
0.6213
0.6205
0.6197
0.6196
0.62
0.6208
0.622
0.6236
0.6255
0.6274
0.6295
0.6315
0.6336
0.6356
0.6376
0.6395
0.6413
0.6434
0.6457
0.6486
0.6517
0.6555
0.659
0.6633
0.6668
0.6703
0.6732
0.6761
0.6783
0.6808
0.6834
0.686
0.6889
0.6916
0.6939
0.6959
0.6978
0.6997
0.7019
0.7042
0.7065
0.7086
0.7102
0.7117
0.7135
0.7156
0.7179
0.7205
0.7229
0.7252
0.7274
0.7297
0.732
0.7343
0.7365
0.7386
0.7406
0.7426
0.7444
0.746
0.7475
0.7489
0.75
0.7511
0.7521
0.753
0.754
0.7551
0.7533
0.7497
0.7451
0.7359
0.725
0.7085
0.06266
0.08895
0.1319
0.2476
0.3886
0.5165
0.516
0.3765
0.1302
0.02607
0.004422
0.0008793
0.0002991
0.0001748
0.0001408
0.0001406
0.0002124
0.0004707
0.001249
0.003437
0.008449
0.01558
0.02475
0.03752
0.05209
0.0622
0.07292
0.0841
0.09566
0.1072
0.1187
0.1334
0.1499
0.1673
0.1818
0.1908
0.2002
0.2135
0.2292
0.2432
0.2523
0.2524
0.2538
0.2567
0.2618
0.2677
0.2747
0.2827
0.2925
0.3046
0.3182
0.3347
0.353
0.3723
0.3896
0.4031
0.4127
0.4186
0.4243
0.429
0.4352
0.442
0.4511
0.461
0.4718
0.4822
0.492
0.5016
0.5108
0.5196
0.5282
0.5365
0.5446
0.5521
0.559
0.5656
0.5721
0.5787
0.5855
0.5921
0.5981
0.6027
0.6057
0.6072
0.6075
0.6062
0.6041
0.6022
0.6007
0.6003
0.601
0.6023
0.6039
0.606
0.6084
0.6109
0.6135
0.616
0.6184
0.6206
0.6228
0.6249
0.6273
0.6305
0.634
0.6382
0.6424
0.6469
0.6507
0.6547
0.6581
0.6613
0.6638
0.666
0.668
0.6705
0.6734
0.6766
0.6796
0.6823
0.6844
0.6864
0.6884
0.6907
0.6933
0.696
0.6983
0.7003
0.7019
0.7036
0.7056
0.708
0.7105
0.7131
0.7155
0.7179
0.7202
0.7226
0.7249
0.7271
0.7293
0.7314
0.7333
0.7351
0.7368
0.7383
0.7396
0.7407
0.7418
0.743
0.7443
0.7458
0.7448
0.7422
0.7338
0.7227
0.7113
0.6969
0.6801
0.6568
0.06986
0.09762
0.1484
0.2827
0.4528
0.5716
0.5612
0.4001
0.1389
0.02949
0.005735
0.001359
0.0005265
0.0003046
0.0002393
0.000223
0.0003658
0.0009257
0.002998
0.008561
0.02036
0.03118
0.04259
0.05741
0.07319
0.08489
0.09686
0.109
0.1215
0.1336
0.1453
0.1604
0.1773
0.1953
0.2111
0.2227
0.2273
0.2306
0.2331
0.2334
0.2328
0.2321
0.2325
0.2346
0.2392
0.2447
0.2513
0.2589
0.2688
0.2822
0.2981
0.3174
0.3368
0.3552
0.3719
0.3854
0.3962
0.4041
0.4106
0.4143
0.4199
0.4253
0.4331
0.4419
0.4526
0.4632
0.4742
0.4844
0.4943
0.5035
0.5123
0.5207
0.5289
0.5363
0.5433
0.5496
0.556
0.5631
0.5708
0.5788
0.5862
0.5922
0.596
0.5982
0.5993
0.5986
0.5972
0.5955
0.5926
0.5894
0.5875
0.5864
0.5867
0.589
0.5917
0.5946
0.5975
0.6003
0.6031
0.6057
0.6086
0.6116
0.6151
0.6195
0.6241
0.6292
0.6338
0.638
0.6416
0.6451
0.6478
0.6504
0.6525
0.6548
0.6573
0.6603
0.6636
0.6669
0.6698
0.6723
0.6744
0.6765
0.6789
0.6816
0.6845
0.6873
0.6895
0.6913
0.6928
0.6947
0.6969
0.6996
0.7021
0.7047
0.7071
0.7095
0.7119
0.7143
0.7165
0.7187
0.7208
0.7228
0.7246
0.7263
0.7277
0.729
0.7301
0.7312
0.7325
0.7341
0.7334
0.7315
0.7241
0.7144
0.698
0.6808
0.6608
0.6421
0.6218
0.6006
0.0811
0.1103
0.1741
0.3247
0.5165
0.6178
0.5938
0.427
0.1531
0.03778
0.008894
0.002634
0.001128
0.0006368
0.0004721
0.0004349
0.0007712
0.002047
0.006741
0.01819
0.03538
0.04191
0.04729
0.05468
0.06356
0.07332
0.08355
0.09437
0.1057
0.117
0.1278
0.1424
0.1593
0.1781
0.1956
0.2097
0.2168
0.2226
0.2268
0.2295
0.2314
0.2324
0.2347
0.238
0.2426
0.2481
0.2546
0.2602
0.2669
0.2763
0.2889
0.3043
0.3226
0.3399
0.3564
0.3718
0.385
0.3952
0.4039
0.41
0.4166
0.4214
0.4278
0.4342
0.4427
0.4516
0.4624
0.4734
0.4836
0.4929
0.5017
0.5101
0.5181
0.5254
0.5321
0.5388
0.5458
0.554
0.5628
0.5721
0.5804
0.5878
0.5929
0.5969
0.5998
0.6008
0.6008
0.5997
0.5969
0.5934
0.5885
0.5826
0.5774
0.5758
0.576
0.5789
0.5821
0.5853
0.5889
0.5926
0.5966
0.6007
0.6053
0.6103
0.6156
0.6204
0.6249
0.6285
0.6315
0.6342
0.6366
0.639
0.6414
0.6441
0.6471
0.6505
0.6539
0.657
0.6597
0.662
0.6643
0.6668
0.6696
0.6726
0.6754
0.678
0.6799
0.6815
0.6832
0.6853
0.6877
0.6904
0.693
0.6955
0.6979
0.7003
0.7026
0.7049
0.7071
0.7091
0.7111
0.7129
0.7145
0.7159
0.7172
0.7182
0.7193
0.7205
0.7224
0.7221
0.716
0.7068
0.69
0.6715
0.6467
0.6256
0.6042
0.5858
0.5662
0.5517
0.09441
0.128
0.2047
0.3773
0.5723
0.6481
0.6086
0.4542
0.1823
0.05424
0.01606
0.005806
0.002607
0.001448
0.001006
0.0009585
0.001738
0.004293
0.01183
0.02539
0.03707
0.03786
0.04113
0.04618
0.05258
0.06007
0.06843
0.07798
0.08838
0.09923
0.1103
0.1248
0.1417
0.1612
0.1804
0.197
0.2077
0.2167
0.2243
0.2312
0.2375
0.2434
0.2491
0.2543
0.2595
0.2655
0.2724
0.2767
0.2812
0.2873
0.296
0.3063
0.3197
0.332
0.3446
0.3591
0.3753
0.3894
0.4017
0.4112
0.4203
0.4279
0.4343
0.4381
0.4434
0.4496
0.4586
0.4694
0.4804
0.49
0.4987
0.5066
0.5139
0.5212
0.5282
0.5359
0.5437
0.5527
0.5616
0.5716
0.5803
0.5883
0.5946
0.6002
0.6048
0.608
0.6106
0.6127
0.6122
0.6103
0.6038
0.5933
0.5808
0.5714
0.565
0.5649
0.5686
0.5728
0.5776
0.5825
0.5877
0.5924
0.5976
0.6025
0.6073
0.6115
0.6151
0.6181
0.6206
0.6232
0.6258
0.6284
0.6312
0.6343
0.6377
0.6412
0.6443
0.6471
0.6496
0.6521
0.6548
0.6578
0.6607
0.6636
0.6661
0.6681
0.6697
0.6714
0.6734
0.6757
0.6782
0.6808
0.6832
0.6856
0.6879
0.6902
0.6924
0.6945
0.6965
0.6984
0.7001
0.7016
0.703
0.7041
0.7051
0.7061
0.7073
0.7091
0.709
0.7033
0.6885
0.6688
0.6401
0.6152
0.5911
0.571
0.551
0.5385
0.5282
0.5219
0.09803
0.1326
0.2211
0.412
0.6122
0.6673
0.6177
0.4694
0.207
0.07315
0.02746
0.01192
0.005758
0.003243
0.002166
0.002202
0.003757
0.008514
0.01807
0.03092
0.03508
0.03355
0.03436
0.0368
0.04055
0.04562
0.05213
0.0603
0.06989
0.0804
0.09127
0.105
0.121
0.1397
0.1592
0.1778
0.1923
0.2049
0.2165
0.2283
0.2399
0.2521
0.2626
0.271
0.2779
0.2852
0.293
0.2971
0.3002
0.302
0.3074
0.3136
0.3236
0.3333
0.344
0.3566
0.3721
0.3871
0.4017
0.4152
0.4279
0.4388
0.4471
0.4522
0.455
0.4583
0.4645
0.4733
0.4836
0.4934
0.5017
0.5087
0.5156
0.5234
0.5314
0.5402
0.5489
0.5581
0.5664
0.5751
0.5832
0.591
0.5979
0.6047
0.6111
0.6168
0.6221
0.6272
0.6298
0.631
0.6276
0.6171
0.5984
0.5802
0.5645
0.5572
0.5584
0.5636
0.5695
0.5751
0.5809
0.5857
0.5906
0.5947
0.5986
0.6019
0.605
0.6078
0.6106
0.6133
0.6161
0.619
0.6221
0.6255
0.629
0.6322
0.6351
0.6377
0.6403
0.6431
0.6461
0.6492
0.6519
0.6543
0.6561
0.6575
0.6591
0.6611
0.6634
0.6659
0.6684
0.6707
0.673
0.6752
0.6773
0.6793
0.6813
0.6831
0.6848
0.6864
0.6878
0.689
0.69
0.6909
0.6918
0.6929
0.6946
0.6944
0.6886
0.6741
0.6487
0.6168
0.5853
0.5595
0.5416
0.5303
0.5206
0.5155
0.5096
0.5012
0.08703
0.1219
0.2129
0.4192
0.6343
0.6781
0.6273
0.4821
0.2362
0.09577
0.04361
0.02166
0.01147
0.006761
0.004483
0.004834
0.007715
0.01525
0.0264
0.03648
0.03262
0.02869
0.02723
0.02751
0.02923
0.03251
0.03742
0.04413
0.05244
0.06201
0.07233
0.08434
0.09816
0.1142
0.1318
0.1501
0.1666
0.182
0.197
0.2129
0.2294
0.2454
0.2601
0.272
0.2816
0.2911
0.3006
0.3063
0.3099
0.3128
0.3173
0.3218
0.3297
0.3371
0.3463
0.3577
0.3723
0.3876
0.4032
0.4195
0.4354
0.45
0.4615
0.4696
0.4742
0.4758
0.479
0.4845
0.492
0.5002
0.5085
0.5155
0.5227
0.5308
0.5391
0.5478
0.556
0.5638
0.5709
0.5783
0.5851
0.592
0.5988
0.606
0.6135
0.6212
0.629
0.637
0.6434
0.6485
0.6491
0.642
0.6223
0.5958
0.5706
0.5545
0.5508
0.557
0.5635
0.5692
0.5746
0.579
0.5831
0.5864
0.5897
0.5926
0.5956
0.5986
0.6015
0.6043
0.6073
0.6104
0.6138
0.6174
0.6207
0.6237
0.6264
0.629
0.6317
0.6347
0.6376
0.6403
0.6424
0.6441
0.6453
0.6468
0.6486
0.6509
0.6533
0.6557
0.658
0.6601
0.6621
0.6641
0.666
0.6677
0.6694
0.6708
0.6722
0.6733
0.6744
0.6753
0.6761
0.6769
0.6778
0.6791
0.6785
0.6724
0.6576
0.6322
0.5962
0.5618
0.5347
0.5178
0.5098
0.5055
0.4995
0.4926
0.484
0.4726
0.07688
0.1128
0.2074
0.4294
0.6475
0.6797
0.6268
0.484
0.255
0.1177
0.06262
0.03484
0.02034
0.01278
0.008624
0.009508
0.01413
0.02424
0.03501
0.03998
0.02975
0.02394
0.02103
0.02002
0.02054
0.02256
0.02613
0.03138
0.03823
0.04648
0.05573
0.06628
0.07793
0.09134
0.1064
0.1229
0.1396
0.1564
0.1737
0.1906
0.2074
0.2232
0.238
0.2508
0.2632
0.2751
0.2866
0.2954
0.3024
0.3087
0.3156
0.322
0.3301
0.3382
0.3469
0.3574
0.3706
0.3856
0.4014
0.4198
0.4384
0.4569
0.4729
0.4856
0.4933
0.4956
0.4951
0.496
0.4992
0.5051
0.514
0.5215
0.5293
0.5375
0.5455
0.5528
0.56
0.5663
0.5722
0.5784
0.5846
0.5914
0.5986
0.6063
0.6142
0.6223
0.6303
0.6387
0.6472
0.6554
0.6609
0.6607
0.643
0.6148
0.581
0.5557
0.5448
0.5515
0.5575
0.5627
0.5673
0.5709
0.5742
0.5773
0.5804
0.5836
0.5868
0.5898
0.5928
0.5958
0.599
0.6024
0.6062
0.6096
0.6126
0.6153
0.6179
0.6205
0.6231
0.6257
0.628
0.6299
0.6313
0.6325
0.6337
0.6355
0.6376
0.64
0.6424
0.6446
0.6466
0.6485
0.6504
0.6521
0.6538
0.6552
0.6565
0.6576
0.6585
0.6593
0.6601
0.6608
0.6614
0.6621
0.663
0.6619
0.6552
0.6398
0.6139
0.5776
0.5432
0.5162
0.4993
0.4913
0.4874
0.4814
0.4728
0.4628
0.4504
0.435
0.07599
0.1131
0.2126
0.4477
0.6526
0.6755
0.6208
0.482
0.2695
0.1401
0.08329
0.05058
0.03231
0.02174
0.01514
0.01588
0.02123
0.03157
0.03954
0.03978
0.02707
0.02004
0.01639
0.01486
0.01483
0.01615
0.01877
0.02274
0.02813
0.0349
0.04283
0.05196
0.06207
0.07313
0.08563
0.09972
0.115
0.1316
0.1495
0.1656
0.1798
0.192
0.2036
0.215
0.2288
0.2422
0.2551
0.2674
0.2793
0.2909
0.3022
0.3121
0.3212
0.3303
0.3397
0.3503
0.3629
0.3774
0.3928
0.412
0.4338
0.4567
0.4781
0.4965
0.5088
0.5111
0.5091
0.5053
0.5045
0.5081
0.5175
0.5253
0.5329
0.5403
0.5468
0.5526
0.5585
0.5637
0.5691
0.5753
0.5822
0.5895
0.597
0.6048
0.6125
0.6202
0.6278
0.6358
0.644
0.6535
0.6629
0.6703
0.6561
0.6284
0.5896
0.5569
0.538
0.5446
0.5499
0.5543
0.5581
0.5614
0.5647
0.568
0.5713
0.5746
0.5778
0.581
0.5842
0.5876
0.5912
0.5949
0.5983
0.6014
0.6042