/*--------------------------------*- C++ -*----------------------------------*\
| =========                 |                                                 |
| \\      /  F ield         | OpenFOAM: The Open Source CFD Toolbox           |
|  \\    /   O peration     | Version:  5.x                                   |
|   \\  /    A nd           | Web:      www.OpenFOAM.org                      |
|    \\/     M anipulation  |                                                 |
\*---------------------------------------------------------------------------*/
FoamFile
{
    version     2.0;
    format      ascii;
    class       volScalarField;
    location    "90";
    object      gamma;
}
// * * * * * * * * * * * * * * * * * * * * * * * * * * * * * * * * * * * * * //

dimensions      [0 0 0 0 0 0 0];

internalField   nonuniform List<scalar> 
86400
(
7.03e-05
8.747e-05
0.0001272
0.0002148
0.0003956
0.0006256
0.0008542
0.001194
0.001907
0.003043
0.005109
0.007649
0.01098
0.01305
0.01585
0.0175
0.0198
0.01839
0.01525
0.01171
0.009469
0.008223
0.008364
0.008633
0.008846
0.01035
0.01006
0.009666
0.008788
0.008262
0.007842
0.008185
0.008668
0.00922
0.009907
0.01147
0.01175
0.01126
0.009571
0.009032
0.008492
0.009117
0.008998
0.007928
0.007454
0.007683
0.008781
0.009594
0.01038
0.009953
0.009912
0.01015
0.01052
0.01105
0.01143
0.01238
0.01345
0.01377
0.01338
0.01276
0.01139
0.01112
0.01064
0.01089
0.01233
0.01459
0.01567
0.01623
0.0146
0.01388
0.01515
0.01789
0.01927
0.01861
0.01789
0.01752
0.01704
0.0187
0.02095
0.02153
0.0218
0.02101
0.02052
0.02204
0.02568
0.02781
0.02934
0.02882
0.02907
0.02896
0.02702
0.02825
0.03067
0.03629
0.0394
0.04061
0.03647
0.03428
0.03296
0.03188
0.03082
0.02751
0.02405
0.01966
0.01591
0.01557
0.01877
0.02385
0.02308
0.01868
0.01273
0.009364
0.008366
0.008411
0.008168
0.00782
0.00755
0.007354
0.007374
0.007443
0.00747
0.007396
0.007221
0.006919
0.006752
0.006721
0.006592
0.006432
0.006237
0.005955
0.00551
0.005842
0.006382
0.007143
0.007936
0.008863
0.009562
0.01038
0.007337
0.004091
0.002624
0.002222
0.002747
0.003519
0.003754
0.002997
0.002972
0.003147
0.00343
0.003582
0.003408
0.003513
0.004555
0.005801
0.007121
0.008645
0.008921
0.01142
0.1553
0.9656
9.1e-05
0.0001019
0.0001376
0.0002131
0.0003987
0.0006538
0.0009112
0.001233
0.001726
0.002565
0.004524
0.007493
0.01181
0.01551
0.01715
0.01664
0.01808
0.01891
0.01844
0.01781
0.0158
0.01415
0.01398
0.01458
0.01517
0.01591
0.01558
0.01505
0.01448
0.0134
0.01272
0.01309
0.01381
0.01469
0.01573
0.01789
0.01881
0.01904
0.0178
0.01754
0.01676
0.01731
0.01719
0.01544
0.01372
0.01319
0.01319
0.01342
0.01412
0.01417
0.01471
0.0157
0.017
0.01808
0.01687
0.01545
0.01411
0.01286
0.01177
0.01154
0.01052
0.01016
0.00946
0.009367
0.01018
0.01283
0.01431
0.01546
0.01449
0.01443
0.01584
0.01805
0.01717
0.01561
0.01426
0.01543
0.01883
0.02461
0.02885
0.02928
0.02838
0.02703
0.028
0.03077
0.0366
0.04045
0.04361
0.04307
0.04412
0.04543
0.04497
0.04766
0.05041
0.05216
0.05134
0.04824
0.0417
0.03785
0.03561
0.03387
0.03428
0.03513
0.03668
0.03452
0.02834
0.02552
0.02872
0.03495
0.03821
0.03479
0.02429
0.01772
0.01541
0.01559
0.0154
0.0151
0.01501
0.01507
0.01568
0.01638
0.01699
0.01725
0.01717
0.01661
0.01631
0.01629
0.01586
0.01533
0.01468
0.01394
0.01296
0.01375
0.01507
0.01773
0.02006
0.02094
0.02016
0.01899
0.01373
0.008638
0.007228
0.006482
0.006928
0.008409
0.008951
0.00803
0.008446
0.009489
0.01081
0.01069
0.009454
0.008907
0.0103
0.01467
0.02421
0.04428
0.07871
0.1873
0.5259
0.9276
0.0001406
0.0001462
0.0001831
0.0002558
0.0004579
0.000724
0.0009639
0.001232
0.001516
0.002281
0.004142
0.007702
0.0124
0.01749
0.01701
0.01584
0.01794
0.02052
0.02001
0.02028
0.0173
0.01527
0.01583
0.01698
0.01674
0.01843
0.0198
0.02189
0.02479
0.02563
0.02461
0.02573
0.02499
0.0231
0.02092
0.02013
0.0194
0.01932
0.01793
0.0185
0.01935
0.02206
0.02352
0.02344
0.02126
0.02029
0.01969
0.01943
0.01996
0.02069
0.01939
0.01735
0.01562
0.01446
0.01255
0.01218
0.01136
0.01026
0.009407
0.00941
0.009098
0.009255
0.009257
0.01008
0.01055
0.01171
0.01235
0.01302
0.01223
0.01268
0.01345
0.01344
0.01185
0.01179
0.01303
0.01835
0.02761
0.03827
0.04404
0.04539
0.04321
0.0398
0.04041
0.04384
0.05301
0.05816
0.0627
0.06271
0.05818
0.05146
0.04355
0.0386
0.03521
0.03788
0.04039
0.04202
0.04135
0.04064
0.03779
0.03619
0.03819
0.0424
0.04836
0.04842
0.04303
0.03997
0.04231
0.05119
0.05976
0.05755
0.04535
0.03709
0.03238
0.03292
0.03318
0.03357
0.03193
0.02934
0.0274
0.02613
0.02609
0.02708
0.02727
0.02655
0.02619
0.02622
0.02558
0.0247
0.02335
0.02225
0.02094
0.02192
0.02352
0.02619
0.02988
0.03146
0.03103
0.02962
0.02471
0.01932
0.01805
0.01725
0.01827
0.02075
0.022
0.01996
0.01931
0.01988
0.02166
0.02142
0.02106
0.02128
0.02814
0.048
0.09943
0.2506
0.5467
0.7844
0.8922
0.9714
0.0002611
0.0002625
0.000295
0.000364
0.0005754
0.0008026
0.0009333
0.001049
0.001212
0.001877
0.002985
0.003691
0.004097
0.005378
0.005406
0.006567
0.009418
0.008813
0.006736
0.005752
0.004405
0.003679
0.004858
0.006218
0.006527
0.008242
0.01072
0.01395
0.01936
0.02427
0.02415
0.02735
0.02763
0.02599
0.02288
0.02068
0.01918
0.01938
0.01815
0.02038
0.02457
0.03289
0.04299
0.04998
0.04
0.0299
0.02123
0.01601
0.01397
0.01479
0.01298
0.01084
0.01
0.009508
0.008339
0.008259
0.00755
0.006933
0.007039
0.007952
0.008476
0.009422
0.0102
0.01086
0.01086
0.01144
0.01106
0.01085
0.01018
0.01152
0.01358
0.01388
0.01332
0.01472
0.01594
0.02398
0.03664
0.04683
0.04768
0.04924
0.04586
0.04264
0.04315
0.04481
0.04839
0.05057
0.05299
0.05277
0.05104
0.04986
0.04835
0.04687
0.04311
0.0462
0.04851
0.05075
0.05189
0.05259
0.04842
0.04757
0.04757
0.04839
0.05641
0.05824
0.05108
0.04722
0.04567
0.05315
0.0641
0.07136
0.06025
0.05369
0.04748
0.04897
0.05153
0.05579
0.05486
0.05128
0.04734
0.04437
0.04301
0.04538
0.04613
0.04535
0.04504
0.04533
0.04454
0.04339
0.04203
0.04071
0.03921
0.04084
0.04383
0.04939
0.0518
0.04699
0.03959
0.03185
0.02864
0.02932
0.03162
0.03274
0.03451
0.03675
0.041
0.04211
0.04336
0.04716
0.05557
0.06075
0.07252
0.08563
0.1242
0.238
0.537
0.7804
0.9076
0.9694
0.9902
0.9976
0.0005732
0.000625
0.0006842
0.0007975
0.001006
0.001054
0.0008923
0.0009218
0.001041
0.001505
0.001786
0.001257
0.0008286
0.001025
0.001256
0.002328
0.004896
0.003565
0.001893
0.001479
0.001312
0.001182
0.001949
0.002425
0.002546
0.003923
0.007067
0.01326
0.02254
0.02707
0.01965
0.01673
0.01377
0.01195
0.01106
0.01011
0.00883
0.01011
0.01202
0.0177
0.02299
0.02743
0.02427
0.0209
0.01362
0.009509
0.005844
0.0047
0.00487
0.006864
0.007558
0.007774
0.00734
0.007397
0.006863
0.006971
0.006598
0.006359
0.007667
0.01009
0.01243
0.01506
0.01787
0.01896
0.01644
0.01337
0.01121
0.009599
0.008544
0.009578
0.01154
0.01136
0.01251
0.0157
0.01951
0.02688
0.03831
0.04199
0.04049
0.04421
0.04204
0.03893
0.03976
0.0427
0.04774
0.05311
0.05738
0.05664
0.05651
0.05706
0.05466
0.05622
0.05484
0.06078
0.06618
0.07653
0.07867
0.0799
0.07393
0.06797
0.05651
0.04436
0.04311
0.04421
0.04267
0.04917
0.05252
0.05494
0.0609
0.07583
0.06792
0.0654
0.06048
0.06322
0.06038
0.05659
0.04694
0.03798
0.03063
0.02929
0.02814
0.0295
0.02983
0.02964
0.02984
0.03043
0.03062
0.03064
0.03064
0.03059
0.03036
0.0304
0.0307
0.03297
0.03209
0.02878
0.0256
0.02371
0.02364
0.02765
0.03238
0.03578
0.03942
0.04525
0.05591
0.06333
0.07155
0.08014
0.1042
0.1343
0.2067
0.3293
0.5182
0.7033
0.8498
0.936
0.9763
0.9929
0.998
0.9994
0.001086
0.001375
0.001565
0.001853
0.001742
0.001367
0.0009133
0.0008597
0.0009849
0.001391
0.001322
0.0005523
0.0002173
0.0002145
0.0004282
0.001073
0.002553
0.001831
0.0009508
0.0008441
0.001034
0.001098
0.002014
0.001448
0.0009674
0.001041
0.001714
0.003523
0.008378
0.00959
0.006265
0.004876
0.004072
0.003848
0.00466
0.00485
0.003801
0.003913
0.004604
0.005257
0.004725
0.004344
0.002676
0.001792
0.001112
0.0005757
0.0001989
0.0001468
0.0001716
0.0003206
0.0004821
0.0007811
0.001126
0.001473
0.001658
0.00159
0.001388
0.001586
0.003165
0.006366
0.01071
0.01348
0.01298
0.01233
0.01037
0.008506
0.009703
0.01054
0.01032
0.01242
0.01609
0.01551
0.01762
0.022
0.02484
0.02986
0.03716
0.04113
0.04445
0.05614
0.06302
0.06743
0.0734
0.08153
0.09032
0.0987
0.1051
0.1032
0.1064
0.1148
0.1218
0.1138
0.09692
0.09011
0.08691
0.09129
0.08927
0.08772
0.08076
0.07939
0.07083
0.05739
0.05289
0.05021
0.04519
0.04717
0.04034
0.03908
0.04119
0.04492
0.03778
0.03577
0.03316
0.03449
0.03125
0.02801
0.02262
0.01851
0.01558
0.01537
0.01454
0.01467
0.01454
0.01457
0.01488
0.01542
0.01618
0.01715
0.01829
0.01943
0.02026
0.0209
0.02204
0.0252
0.026
0.02567
0.02351
0.02407
0.02591
0.03247
0.03929
0.04578
0.05447
0.0681
0.09226
0.1185
0.1556
0.2114
0.315
0.469
0.6259
0.7393
0.8312
0.9036
0.954
0.9813
0.9934
0.9978
0.9992
0.9997
0.001818
0.00262
0.003035
0.003396
0.002711
0.001878
0.001132
0.001141
0.001563
0.002054
0.001401
0.0004404
0.0001124
0.0001036
0.0001694
0.0005543
0.001726
0.001967
0.001405
0.00173
0.002728
0.002772
0.004012
0.001648
0.000773
0.0005927
0.0008218
0.001472
0.003976
0.004515
0.002941
0.001959
0.00181
0.002099
0.002813
0.002791
0.001755
0.001512
0.001979
0.002152
0.001431
0.0008428
0.0003106
0.0001433
8.393e-05
2.837e-05
7.318e-06
5.004e-06
6.382e-06
1.624e-05
3.216e-05
6.223e-05
0.000109
0.0001766
0.0002245
0.0002201
0.0002097
0.0003026
0.0009625
0.002691
0.006579
0.01026
0.01068
0.0118
0.01259
0.01105
0.01469
0.01776
0.01877
0.02055
0.0281
0.02657
0.03318
0.04339
0.0503
0.05906
0.06951
0.0748
0.07954
0.09685
0.1129
0.1291
0.1502
0.17
0.1973
0.2113
0.2177
0.2085
0.2311
0.262
0.2551
0.2367
0.2062
0.1864
0.1783
0.1839
0.1618
0.144
0.125
0.1273
0.1199
0.09932
0.0991
0.08794
0.06895
0.06083
0.04797
0.0356
0.03438
0.03476
0.03016
0.0286
0.02673
0.02667
0.02283
0.0192
0.01416
0.0118
0.01038
0.01078
0.01052
0.01051
0.01046
0.01063
0.01107
0.01177
0.01275
0.01403
0.01562
0.01732
0.01887
0.02038
0.0226
0.02718
0.03048
0.03553
0.04235
0.05156
0.06346
0.0855
0.1079
0.1357
0.1764
0.2395
0.3491
0.4717
0.5773
0.666
0.7427
0.8081
0.864
0.9107
0.9489
0.974
0.9884
0.9953
0.9979
0.999
0.9996
0.9998
0.003563
0.005117
0.00538
0.005591
0.004341
0.002863
0.001803
0.002095
0.002436
0.002156
0.001293
0.0003829
9.777e-05
9e-05
0.000151
0.0004992
0.001767
0.003259
0.004216
0.008009
0.01162
0.01091
0.01242
0.005081
0.001992
0.0008737
0.0009495
0.001202
0.002558
0.002908
0.002172
0.002012
0.001997
0.002414
0.002905
0.002598
0.001519
0.001418
0.002115
0.001513
0.0006816
0.0002286
7.307e-05
2.647e-05
1.773e-05
4.952e-06
1.188e-06
8.211e-07
1.206e-06
3.373e-06
7.896e-06
1.965e-05
4.928e-05
0.0001074
0.0001409
9.114e-05
5.931e-05
6.75e-05
0.0002074
0.0007217
0.002729
0.006403
0.008702
0.01166
0.0145
0.01507
0.02182
0.02882
0.03144
0.03677
0.05164
0.05677
0.07154
0.09214
0.1083
0.1202
0.1347
0.1675
0.199
0.2483
0.2819
0.3208
0.3761
0.4254
0.4747
0.5008
0.5158
0.5073
0.5552
0.6069
0.6136
0.6094
0.5725
0.5234
0.4848
0.4662
0.386
0.3167
0.2678
0.264
0.2681
0.2899
0.2902
0.2189
0.1363
0.09307
0.07441
0.05686
0.05497
0.04713
0.03775
0.03289
0.03148
0.03064
0.02547
0.02044
0.01698
0.0153
0.01477
0.0165
0.01707
0.01708
0.01725
0.01783
0.01898
0.0208
0.02351
0.02717
0.03199
0.03767
0.04381
0.0507
0.05996
0.07503
0.09131
0.1136
0.1442
0.1841
0.2395
0.3331
0.4386
0.5328
0.616
0.6872
0.7523
0.8119
0.8623
0.9006
0.9279
0.9468
0.9628
0.9773
0.9881
0.9943
0.9974
0.9987
0.9993
0.9996
0.9997
0.9998
0.006846
0.008981
0.00838
0.008016
0.005831
0.003809
0.002896
0.00276
0.002212
0.001521
0.0007634
0.0003222
0.0001723
0.0002106
0.0003931
0.0009686
0.001951
0.003417
0.004932
0.006874
0.01067
0.01375
0.02105
0.01454
0.007717
0.003918
0.002532
0.00244
0.003464
0.003835
0.003228
0.003773
0.003467
0.003759
0.003173
0.002054
0.0009386
0.001044
0.001507
0.0007202
0.0002538
7.173e-05
2.583e-05
1.116e-05
1.111e-05
4.542e-06
1.806e-06
1.445e-06
2.175e-06
3.083e-06
5.295e-06
1.014e-05
2.215e-05
4.628e-05
6.594e-05
4.755e-05
2.864e-05
2.909e-05
7.22e-05
0.0002854
0.001606
0.005566
0.01097
0.01668
0.02206
0.02289
0.03269
0.04833
0.05473
0.06405
0.0823
0.09116
0.113
0.1611
0.2312
0.3342
0.4429
0.552
0.6041
0.6312
0.6516
0.6806
0.7188
0.7524
0.7864
0.8042
0.816
0.8167
0.8237
0.8252
0.8075
0.7912
0.7817
0.7834
0.7919
0.7959
0.7654
0.7139
0.6505
0.6207
0.6317
0.6635
0.6625
0.5837
0.4573
0.2939
0.2173
0.1676
0.1502
0.1072
0.08734
0.07466
0.07221
0.06827
0.06148
0.05381
0.04683
0.04072
0.03695
0.03603
0.03537
0.03628
0.03753
0.03951
0.0429
0.0484
0.05732
0.07041
0.08881
0.1124
0.1408
0.1754
0.2213
0.2882
0.3962
0.5134
0.6118
0.6879
0.7437
0.7882
0.8272
0.8616
0.8902
0.9128
0.9314
0.9481
0.962
0.9724
0.9796
0.9843
0.9896
0.9942
0.9972
0.9987
0.9993
0.9995
0.9997
0.9998
0.9998
0.9998
0.01041
0.01184
0.0108
0.009934
0.007021
0.004692
0.00306
0.002014
0.001205
0.0007756
0.0003997
0.0002919
0.0003146
0.0005327
0.001123
0.001948
0.003514
0.003634
0.003697
0.003066
0.004021
0.00629
0.01351
0.01883
0.01604
0.009468
0.004863
0.004108
0.003827
0.004761
0.005632
0.008191
0.007653
0.007369
0.003794
0.001951
0.001119
0.001347
0.001259
0.0003993
0.0001163
3.133e-05
1.525e-05
1.135e-05
1.361e-05
7.672e-06
5.863e-06
6.371e-06
6.473e-06
5.207e-06
5.01e-06
5.654e-06
1.327e-05
3.627e-05
6.061e-05
5.477e-05
4.244e-05
4.09e-05
7.821e-05
0.0003121
0.001607
0.006737
0.01483
0.02578
0.0376
0.0432
0.0537
0.08235
0.1005
0.1324
0.1804
0.2434
0.353
0.5147
0.6069
0.6758
0.7246
0.7712
0.7949
0.8063
0.8179
0.8339
0.8558
0.8739
0.8916
0.9037
0.91
0.9119
0.9144
0.9137
0.9113
0.9141
0.9228
0.9284
0.9335
0.9299
0.9154
0.8899
0.8613
0.8416
0.8437
0.8519
0.8426
0.7954
0.7145
0.628
0.5688
0.5118
0.4664
0.3316
0.2535
0.2018
0.1831
0.1529
0.1456
0.1489
0.1531
0.1498
0.144
0.1306
0.1278
0.1378
0.1489
0.1624
0.1879
0.2307
0.3005
0.4002
0.4937
0.5665
0.6289
0.6818
0.7257
0.7644
0.801
0.8352
0.8648
0.8901
0.9099
0.9267
0.9413
0.9545
0.965
0.9729
0.9789
0.984
0.988
0.991
0.9931
0.9944
0.9965
0.9982
0.9992
0.9996
0.9997
0.9997
0.9998
0.9998
0.9999
0.9998
0.01265
0.01326
0.01266
0.01233
0.008693
0.003823
0.001397
0.0006168
0.0003134
0.0002498
0.0002423
0.0003099
0.0006373
0.001558
0.002587
0.003957
0.004585
0.002791
0.002115
0.001283
0.001603
0.002375
0.007241
0.01733
0.02377
0.01851
0.01427
0.01075
0.007366
0.007735
0.00742
0.007804
0.005656
0.004461
0.002314
0.001244
0.0009627
0.001593
0.001217
0.0004162
9.693e-05
3.065e-05
1.208e-05
8.836e-06
8.32e-06
9.163e-06
2.188e-05
4.006e-05
4.149e-05
1.9e-05
6.948e-06
4.197e-06
1.002e-05
4.338e-05
0.0001294
0.0002458
0.0002724
0.0002497
0.0003778
0.001347
0.005377
0.01805
0.04102
0.07268
0.09668
0.1092
0.124
0.1746
0.2247
0.3042
0.3987
0.5488
0.6532
0.745
0.7918
0.8236
0.8477
0.8673
0.8791
0.8858
0.8945
0.9075
0.9227
0.9348
0.946
0.9543
0.9586
0.9615
0.9637
0.9656
0.9694
0.975
0.9797
0.9815
0.9821
0.9782
0.9708
0.9593
0.9485
0.9363
0.9301
0.9249
0.9143
0.8954
0.8758
0.8544
0.8354
0.8109
0.781
0.7285
0.681
0.6305
0.5916
0.5316
0.5109
0.511
0.5213
0.5094
0.49
0.4622
0.4645
0.5005
0.5317
0.5618
0.6064
0.6599
0.7151
0.7653
0.8062
0.8367
0.8629
0.8851
0.9023
0.917
0.9301
0.9421
0.9532
0.9628
0.9701
0.976
0.9807
0.9848
0.9881
0.9907
0.9926
0.9943
0.9955
0.9965
0.9971
0.9974
0.9983
0.9991
0.9996
0.9998
0.9998
0.9998
0.9998
0.9998
0.9998
0.9997
0.01339
0.01366
0.01268
0.01166
0.007492
0.00289
0.0007736
0.0002916
0.000136
0.000182
0.0002762
0.0007858
0.002081
0.003727
0.005252
0.007395
0.00615
0.003877
0.00233
0.001158
0.001387
0.00254
0.008545
0.01981
0.029
0.02412
0.02219
0.01702
0.01307
0.01202
0.01078
0.008865
0.005413
0.003251
0.002219
0.001436
0.001366
0.00243
0.001346
0.0004074
8.531e-05
2.026e-05
6.401e-06
4.909e-06
3.577e-06
5.964e-06
2.026e-05
6.762e-05
7.356e-05
3.162e-05
7.994e-06
4.833e-06
1.394e-05
8.76e-05
0.000382
0.0008385
0.001202
0.00149
0.002491
0.007434
0.01839
0.04129
0.07292
0.1124
0.1424
0.1978
0.2519
0.3853
0.5089
0.6064
0.6773
0.7512
0.8055
0.8486
0.8665
0.8788
0.8913
0.9052
0.9198
0.932
0.9429
0.953
0.9616
0.9687
0.9746
0.9788
0.9818
0.9846
0.9869
0.9888
0.991
0.9924
0.993
0.9922
0.9902
0.9853
0.9796
0.9731
0.9679
0.9618
0.9584
0.9551
0.9501
0.9435
0.9381
0.9319
0.9272
0.9214
0.91
0.8924
0.8732
0.8484
0.8223
0.79
0.772
0.7693
0.7727
0.7715
0.7729
0.7679
0.7749
0.7947
0.8115
0.8277
0.8495
0.8735
0.8969
0.916
0.9308
0.9415
0.9508
0.9594
0.9662
0.9719
0.9768
0.981
0.9846
0.9878
0.9901
0.9919
0.9933
0.9945
0.9955
0.9964
0.997
0.9975
0.9979
0.9983
0.9985
0.9985
0.9989
0.9993
0.9996
0.9997
0.9998
0.9997
0.9998
0.9998
0.9997
0.9993
0.01192
0.01224
0.01039
0.007952
0.004667
0.001921
0.0005341
0.000234
0.0001983
0.0003375
0.0007633
0.002478
0.004494
0.006626
0.007818
0.008153
0.006494
0.004389
0.002372
0.001224
0.001391
0.002661
0.007506
0.01511
0.02289
0.02123
0.02414
0.02143
0.01973
0.01764
0.01646
0.01217
0.00817
0.00574
0.003939
0.002794
0.002799
0.004195
0.001896
0.0006726
0.0001713
4.408e-05
1.079e-05
8.591e-06
5.658e-06
1.129e-05
4.878e-05
0.0002137
0.0002056
9.678e-05
1.828e-05
8.872e-06
2.081e-05
0.0001413
0.0005879
0.001731
0.003766
0.006122
0.01375
0.03721
0.06653
0.102
0.1339
0.1831
0.2564
0.3978
0.5152
0.6356
0.7157
0.7717
0.8117
0.8423
0.866
0.8851
0.8945
0.9057
0.9176
0.9311
0.9443
0.9566
0.9671
0.9744
0.9791
0.9822
0.9842
0.9857
0.9874
0.9901
0.9927
0.9945
0.9957
0.9961
0.9957
0.9945
0.9922
0.9883
0.9839
0.98
0.9774
0.9745
0.9726
0.9706
0.9691
0.9674
0.9657
0.9622
0.9586
0.9549
0.9508
0.9466
0.9409
0.9311
0.9191
0.9046
0.8962
0.8961
0.8984
0.9014
0.906
0.9093
0.916
0.9254
0.9331
0.9397
0.9477
0.956
0.9641
0.9712
0.9766
0.9806
0.9837
0.9864
0.9886
0.9905
0.9921
0.9934
0.9945
0.9954
0.9962
0.9968
0.9972
0.9976
0.9979
0.9982
0.9984
0.9986
0.9988
0.9989
0.999
0.9989
0.999
0.9992
0.9994
0.9996
0.9997
0.9997
0.9997
0.9996
0.9993
0.9986
0.01081
0.01094
0.009062
0.00585
0.003223
0.001718
0.0006636
0.0005014
0.0005201
0.0009809
0.002008
0.00482
0.005862
0.00673
0.006387
0.006135
0.005263
0.003535
0.002137
0.001532
0.001908
0.003501
0.00674
0.01062
0.01259
0.01191
0.01484
0.01436
0.01516
0.01687
0.0183
0.01606
0.01353
0.009728
0.006266
0.004167
0.003557
0.004745
0.003148
0.001882
0.0007272
0.0002544
7.394e-05
5.798e-05
3.967e-05
7.455e-05
0.0002327
0.000906
0.0009894
0.0006259
0.0001557
9.576e-05
0.0001908
0.0007632
0.002407
0.006385
0.01313
0.02393
0.04996
0.1046
0.151
0.1938
0.2589
0.396
0.5239
0.6315
0.7066
0.7671
0.8107
0.8422
0.8664
0.8828
0.8935
0.9011
0.9081
0.917
0.9268
0.9396
0.9537
0.9664
0.9754
0.9822
0.9862
0.9883
0.9895
0.9896
0.9897
0.9912
0.9934
0.9947
0.9958
0.9959
0.995
0.9929
0.9901
0.9861
0.9831
0.9819
0.9817
0.9809
0.9799
0.9788
0.9782
0.9772
0.9761
0.9738
0.972
0.9707
0.9708
0.9701
0.9684
0.9647
0.9602
0.955
0.9508
0.9489
0.949
0.9517
0.9564
0.9615
0.9666
0.9717
0.9757
0.979
0.9823
0.9851
0.9876
0.9899
0.9917
0.9929
0.9939
0.9948
0.9955
0.9962
0.9968
0.9972
0.9975
0.9978
0.9981
0.9983
0.9985
0.9986
0.9987
0.9988
0.9989
0.999
0.999
0.9991
0.9991
0.999
0.9989
0.999
0.9992
0.9994
0.9996
0.9997
0.9996
0.9994
0.9988
0.9976
0.01089
0.01135
0.01006
0.004508
0.002228
0.001125
0.0006971
0.00105
0.001945
0.002292
0.002898
0.003772
0.004288
0.004833
0.004865
0.003361
0.001371
0.0005302
0.0002506
0.0001839
0.0003166
0.0008387
0.002186
0.004353
0.006577
0.007022
0.008292
0.007884
0.007603
0.007579
0.008616
0.01079
0.01344
0.01175
0.0077
0.004892
0.003783
0.005319
0.005217
0.005169
0.003612
0.001978
0.0008431
0.0007072
0.0004947
0.0008962
0.001827
0.004698
0.005248
0.004027
0.001697
0.001071
0.001486
0.00355
0.009228
0.02028
0.0379
0.06286
0.1097
0.1836
0.2739
0.3802
0.4857
0.5923
0.6685
0.7314
0.781
0.8203
0.8484
0.8667
0.8806
0.8902
0.8962
0.9011
0.9069
0.9142
0.9229
0.9361
0.9514
0.9676
0.9791
0.9871
0.991
0.9928
0.9933
0.9929
0.9919
0.9916
0.9923
0.993
0.9935
0.9925
0.9903
0.9874
0.9852
0.9833
0.9832
0.9832
0.9828
0.9816
0.9802
0.9787
0.9788
0.9782
0.9778
0.9762
0.9748
0.9733
0.9732
0.9728
0.9727
0.9722
0.972
0.9718
0.9716
0.9714
0.9725
0.9749
0.9789
0.9829
0.9862
0.9888
0.9907
0.992
0.9931
0.994
0.9948
0.9955
0.9962
0.9968
0.9971
0.9975
0.9978
0.998
0.9982
0.9984
0.9985
0.9986
0.9987
0.9988
0.9989
0.9989
0.999
0.999
0.9991
0.9991
0.9991
0.9991
0.9991
0.9991
0.999
0.9991
0.9993
0.9995
0.9996
0.9997
0.9997
0.9994
0.9989
0.9981
0.0108
0.01202
0.01314
0.00466
0.00191
0.001065
0.001087
0.002548
0.005212
0.004268
0.003158
0.002342
0.001864
0.003086
0.002357
0.000806
0.0002368
6.843e-05
3.348e-05
2.875e-05
7.333e-05
0.000327
0.001226
0.003147
0.006264
0.006441
0.00736
0.007141
0.006105
0.005705
0.007073
0.01087
0.01641
0.01742
0.01177
0.007155
0.005688
0.00728
0.008789
0.01144
0.01308
0.01087
0.007307
0.00706
0.005427
0.005279
0.006296
0.009669
0.01238
0.01421
0.01245
0.0102
0.01301
0.01848
0.03441
0.05928
0.1022
0.1573
0.2477
0.3406
0.4508
0.5367
0.6098
0.6812
0.7378
0.7807
0.8182
0.8472
0.8653
0.8756
0.8815
0.8866
0.8921
0.8976
0.902
0.9068
0.9117
0.9261
0.9438
0.9642
0.9793
0.9883
0.9927
0.9947
0.9948
0.9938
0.9914
0.9886
0.9873
0.9859
0.9853
0.9836
0.9807
0.9785
0.9789
0.9801
0.9815
0.9814
0.9802
0.978
0.9759
0.9745
0.975
0.9746
0.9744
0.9728
0.9716
0.9705
0.9711
0.9714
0.9724
0.9733
0.9741
0.9751
0.976
0.9773
0.9798
0.9836
0.9876
0.9909
0.993
0.9944
0.9953
0.996
0.9966
0.997
0.9973
0.9976
0.9979
0.9981
0.9983
0.9984
0.9985
0.9986
0.9987
0.9988
0.9989
0.9989
0.9989
0.999
0.999
0.9991
0.9991
0.9991
0.9992
0.9992
0.9992
0.9991
0.9991
0.9992
0.9992
0.9994
0.9995
0.9996
0.9997
0.9997
0.9998
0.9997
0.9994
0.999
0.009159
0.0113
0.01682
0.006195
0.00201
0.001021
0.001486
0.003682
0.007447
0.005835
0.003123
0.001955
0.001699
0.002671
0.0009744
0.0001934
5.428e-05
1.936e-05
1.489e-05
1.776e-05
6.055e-05
0.000287
0.001183
0.0034
0.008549
0.0077
0.009174
0.008427
0.006023
0.004919
0.005482
0.008986
0.01481
0.01762
0.01364
0.01007
0.01007
0.01209
0.01632
0.02155
0.0276
0.02919
0.02784
0.02419
0.018
0.01347
0.01215
0.01444
0.02107
0.02668
0.02991
0.02966
0.03778
0.05213
0.1008
0.1653
0.262
0.3495
0.4419
0.5036
0.5752
0.6387
0.7131
0.7805
0.831
0.8666
0.8943
0.9075
0.9115
0.9057
0.8939
0.8841
0.8854
0.8892
0.893
0.8942
0.8954
0.9097
0.9309
0.9561
0.9745
0.9862
0.9912
0.9931
0.9927
0.9905
0.9856
0.9786
0.9729
0.9683
0.9652
0.9625
0.9599
0.9609
0.9659
0.971
0.9735
0.9728
0.9696
0.965
0.9619
0.9615
0.964
0.9661
0.9683
0.9699
0.9706
0.9702
0.9693
0.9682
0.9683
0.9697
0.9714
0.9738
0.9759
0.9791
0.9834
0.9884
0.9924
0.9949
0.9962
0.9969
0.9972
0.9975
0.9978
0.998
0.9982
0.9983
0.9985
0.9986
0.9987
0.9987
0.9988
0.9989
0.9989
0.9989
0.999
0.999
0.9991
0.9991
0.9991
0.9992
0.9992
0.9992
0.9992
0.9992
0.9992
0.9991
0.9992
0.9993
0.9995
0.9996
0.9997
0.9998
0.9998
0.9998
0.9999
0.9998
0.9997
0.9994
0.006805
0.009679
0.01528
0.006655
0.002252
0.001709
0.002532
0.006311
0.008808
0.005992
0.002648
0.00143
0.001178
0.001408
0.0002786
6.485e-05
2.91e-05
2.008e-05
2.624e-05
4.056e-05
0.0001441
0.0005351
0.002309
0.006287
0.01471
0.01144
0.01185
0.01064
0.008115
0.007395
0.007801
0.01097
0.01711
0.01941
0.01614
0.01439
0.01673
0.01951
0.02307
0.0273
0.03521
0.04173
0.054
0.05035
0.03733
0.02425
0.0175
0.01779
0.02681
0.0394
0.05521
0.07092
0.1023
0.1498
0.2397
0.3452
0.4627
0.5205
0.5829
0.6348
0.6917
0.7573
0.8281
0.8823
0.9196
0.9388
0.9489
0.9488
0.9437
0.9298
0.9109
0.8899
0.8818
0.8771
0.8761
0.8767
0.873
0.8864
0.9088
0.9368
0.9586
0.9734
0.9819
0.9845
0.9833
0.9769
0.9655
0.9495
0.9371
0.9282
0.9236
0.9226
0.9227
0.9275
0.936
0.9448
0.9485
0.946
0.9376
0.93
0.9274
0.9325
0.9416
0.9508
0.9586
0.9634
0.9666
0.9677
0.9664
0.9646
0.9644
0.9647
0.9658
0.9685
0.971
0.9763
0.9826
0.99
0.9944
0.9967
0.9976
0.998
0.998
0.9981
0.9982
0.9984
0.9985
0.9986
0.9987
0.9987
0.9988
0.9989
0.9989
0.999
0.999
0.999
0.9991
0.9991
0.9991
0.9992
0.9992
0.9992
0.9992
0.9992
0.9992
0.9992
0.9991
0.9991
0.9993
0.9995
0.9997
0.9998
0.9998
0.9998
0.9998
0.9998
0.9999
0.9998
0.9997
0.9994
0.006089
0.009032
0.01232
0.005983
0.001941
0.002004
0.003785
0.01009
0.01168
0.007537
0.003405
0.001579
0.0009025
0.0007537
0.0001461
4.712e-05
4.93e-05
7.475e-05
0.0001362
0.0002354
0.0007037
0.001965
0.00716
0.0173
0.03246
0.02238
0.01952
0.01497
0.0109
0.009294
0.01016
0.01365
0.02085
0.02443
0.02178
0.02102
0.02654
0.03192
0.03338
0.03168
0.0322
0.03352
0.04213
0.04588
0.04192
0.03495
0.03158
0.03378
0.0435
0.06771
0.1063
0.1583
0.2327
0.3173
0.4023
0.4748
0.5529
0.6117
0.6819
0.7392
0.8001
0.8566
0.9045
0.9356
0.9558
0.963
0.9662
0.9619
0.9539
0.9358
0.9119
0.8805
0.8629
0.8485
0.8419
0.8448
0.8404
0.8532
0.8725
0.8946
0.9182
0.9338
0.9436
0.9426
0.9311
0.9082
0.8816
0.8544
0.8474
0.8465
0.8422
0.8391
0.8362
0.8441
0.8616
0.8796
0.8853
0.8807
0.866
0.8546
0.8547
0.8701
0.8885
0.9118
0.9327
0.946
0.9546
0.9578
0.9556
0.9529
0.9531
0.9532
0.9551
0.9584
0.9623
0.9693
0.9786
0.9887
0.9942
0.9967
0.9978
0.9982
0.9983
0.9983
0.9984
0.9985
0.9985
0.9986
0.9987
0.9988
0.9989
0.999
0.999
0.999
0.9991
0.9991
0.9992
0.9992
0.9992
0.9992
0.9992
0.9992
0.9992
0.9992
0.9991
0.999
0.9991
0.9992
0.9995
0.9997
0.9998
0.9998
0.9998
0.9998
0.9998
0.9997
0.9998
0.9997
0.9996
0.9991
0.006438
0.008717
0.01075
0.006046
0.00212
0.002881
0.004916
0.01101
0.01234
0.009817
0.004966
0.00275
0.001401
0.0008914
0.000224
0.0001146
0.000208
0.0004502
0.0009251
0.001517
0.003927
0.007751
0.01759
0.0317
0.04046
0.02771
0.02125
0.01674
0.01308
0.01188
0.01292
0.01745
0.02655
0.03311
0.03156
0.03049
0.03429
0.0356
0.03244
0.02752
0.02446
0.02544
0.03202
0.04415
0.05551
0.06256
0.06721
0.07639
0.08865
0.1173
0.1627
0.2318
0.3254
0.4306
0.5049
0.5657
0.6315
0.6935
0.774
0.8399
0.8932
0.9242
0.9449
0.9559
0.9643
0.9662
0.9662
0.9573
0.9472
0.9306
0.9071
0.8748
0.8427
0.81
0.7897
0.7967
0.7945
0.803
0.8149
0.8149
0.8179
0.8159
0.8135
0.7957
0.7635
0.7011
0.6484
0.6043
0.6105
0.6325
0.6451
0.6485
0.6547
0.6632
0.6792
0.7055
0.7134
0.7204
0.7267
0.7364
0.7547
0.7891
0.8166
0.8545
0.8891
0.9085
0.9234
0.9278
0.9273
0.9255
0.9296
0.931
0.9358
0.9408
0.9477
0.9572
0.9709
0.9846
0.9922
0.9956
0.9971
0.9978
0.9981
0.9984
0.9986
0.9986
0.9986
0.9987
0.9988
0.9989
0.999
0.999
0.9991
0.9991
0.9991
0.9992
0.9992
0.9992
0.9992
0.9992
0.9992
0.9991
0.9991
0.999
0.999
0.9991
0.9993
0.9995
0.9997
0.9998
0.9998
0.9998
0.9998
0.9998
0.9997
0.9996
0.9995
0.9993
0.9989
0.9979
0.007608
0.009271
0.0113
0.00578
0.002341
0.002923
0.003777
0.008355
0.01112
0.0118
0.007021
0.005855
0.003648
0.002277
0.0007921
0.0004831
0.000764
0.00143
0.002711
0.005317
0.01153
0.01849
0.02735
0.03177
0.02695
0.02114
0.0201
0.01512
0.01166
0.009892
0.008874
0.01126
0.01989
0.03064
0.03537
0.0367
0.03829
0.03985
0.03744
0.0334
0.02958
0.03022
0.03666
0.05173
0.07552
0.1025
0.1262
0.1501
0.1687
0.2001
0.2495
0.3159
0.4047
0.4906
0.5626
0.6228
0.6885
0.7545
0.8326
0.8917
0.932
0.9487
0.9573
0.9554
0.9552
0.9504
0.9464
0.9338
0.9218
0.9074
0.8859
0.8534
0.8108
0.7539
0.7173
0.7274
0.7273
0.7225
0.7121
0.6735
0.6364
0.5968
0.5642
0.5083
0.4589
0.3757
0.3298
0.3107
0.3077
0.3124
0.3165
0.3057
0.305
0.3078
0.3208
0.3617
0.4027
0.4548
0.5057
0.5573
0.5936
0.6407
0.6713
0.7256
0.7797
0.811
0.8376
0.8479
0.8486
0.8545
0.8713
0.8821
0.8996
0.9151
0.9294
0.9406
0.9584
0.9763
0.9877
0.9928
0.9954
0.9967
0.9976
0.9983
0.9986
0.9988
0.9988
0.9988
0.9988
0.9989
0.999
0.999
0.999
0.999
0.9991
0.9991
0.9991
0.9991
0.9991
0.999
0.999
0.999
0.999
0.9992
0.9993
0.9994
0.9995
0.9997
0.9998
0.9998
0.9998
0.9998
0.9997
0.9996
0.9994
0.9991
0.9986
0.9981
0.9971
0.9952
0.009385
0.01064
0.01244
0.005914
0.002765
0.002481
0.002051
0.00468
0.008871
0.01294
0.01058
0.01399
0.008231
0.005636
0.002762
0.002054
0.002531
0.003875
0.005178
0.008875
0.01719
0.02324
0.0273
0.02394
0.018
0.01637
0.02057
0.01841
0.01447
0.01156
0.008407
0.009115
0.0144
0.02654
0.03988
0.04961
0.05411
0.05538
0.05302
0.05009
0.04788
0.0484
0.05579
0.07292
0.09632
0.1287
0.1642
0.2004
0.2395
0.2833
0.3429
0.4255
0.5197
0.6101
0.6858
0.739
0.7837
0.8271
0.8794
0.9221
0.9493
0.9573
0.9537
0.9389
0.922
0.8999
0.8837
0.8628
0.8527
0.8481
0.8379
0.8091
0.7556
0.6794
0.6286
0.6354
0.632
0.6116
0.5681
0.4763
0.3893
0.3158
0.2862
0.2585
0.2392
0.2119
0.1943
0.1777
0.1552
0.132
0.1203
0.1129
0.1196
0.135
0.1439
0.1449
0.1548
0.1775
0.2089
0.248
0.2882
0.3571
0.4173
0.5055
0.5708
0.5993
0.6224
0.6379
0.6528
0.6946
0.7486
0.794
0.8391
0.8755
0.9039
0.9223
0.9439
0.9645
0.9803
0.9883
0.9928
0.995
0.9966
0.9978
0.9985
0.9987
0.9988
0.9987
0.9988
0.9988
0.9989
0.9989
0.9989
0.9988
0.9988
0.9988
0.9988
0.9988
0.9989
0.999
0.9991
0.9993
0.9994
0.9996
0.9996
0.9997
0.9998
0.9998
0.9998
0.9998
0.9997
0.9996
0.9993
0.9989
0.9983
0.9975
0.9957
0.9939
0.9923
0.9889
0.01031
0.01131
0.01465
0.006707
0.003606
0.001569
0.0008504
0.001955
0.006609
0.0156
0.02308
0.03139
0.01739
0.01236
0.007348
0.005763
0.004772
0.006324
0.006622
0.01054
0.01556
0.01837
0.0199
0.01637
0.01625
0.01821
0.02558
0.02435
0.0205
0.01411
0.009333
0.008093
0.01071
0.02121
0.03943
0.06233
0.07835
0.08185
0.08131
0.08061
0.08203
0.08644
0.0968
0.1162
0.139
0.1712
0.2109
0.2495
0.2934
0.3473
0.4222
0.5208
0.6212
0.7041
0.7738
0.8211
0.8557
0.8857
0.9154
0.9362
0.9502
0.9515
0.9398
0.9107
0.8704
0.8289
0.8056
0.7885
0.7843
0.781
0.7658
0.7283
0.6669
0.5792
0.5197
0.5049
0.4825
0.4314
0.3512
0.2461
0.189
0.1595
0.1529
0.1473
0.1288
0.1035
0.08666
0.0776
0.06742
0.05918
0.05169
0.04711
0.05302
0.06406
0.07324
0.08012
0.08853
0.09611
0.1109
0.125
0.138
0.1621
0.1891
0.2441
0.2911
0.3154
0.3354
0.3762
0.415
0.4988
0.5826
0.6689
0.7546
0.8276
0.8782
0.9098
0.9354
0.9549
0.9716
0.9823
0.9886
0.9922
0.9948
0.9968
0.998
0.9985
0.9986
0.9986
0.9984
0.9985
0.9985
0.9986
0.9988
0.999
0.9991
0.9992
0.9993
0.9993
0.9994
0.9995
0.9995
0.9996
0.9996
0.9997
0.9997
0.9998
0.9997
0.9998
0.9997
0.9996
0.9994
0.9988
0.9979
0.9964
0.9948
0.9924
0.9886
0.9845
0.9814
0.974
0.00871
0.01028
0.01414
0.006914
0.005275
0.001601
0.000789
0.001377
0.005482
0.01198
0.02488
0.03135
0.0201
0.01533
0.01154
0.01055
0.008564
0.009633
0.01076
0.01244
0.01454
0.01473
0.01376
0.01115
0.01172
0.01296
0.01937
0.02188
0.02246
0.01765
0.01085
0.007198
0.007703
0.01315
0.02792
0.05336
0.0786
0.08714
0.09488
0.1045
0.1185
0.1356
0.1558
0.1768
0.1998
0.2328
0.2794
0.3342
0.3965
0.4642
0.5302
0.6111
0.6908
0.756
0.8105
0.8516
0.8811
0.9071
0.9279
0.9404
0.9467
0.9445
0.9272
0.8963
0.8532
0.8107
0.7769
0.7546
0.7352
0.7147
0.6854