/*--------------------------------*- C++ -*----------------------------------*\
| =========                 |                                                 |
| \\      /  F ield         | OpenFOAM: The Open Source CFD Toolbox           |
|  \\    /   O peration     | Version:  5.x                                   |
|   \\  /    A nd           | Web:      www.OpenFOAM.org                      |
|    \\/     M anipulation  |                                                 |
\*---------------------------------------------------------------------------*/
FoamFile
{
    version     2.0;
    format      ascii;
    class       volScalarField;
    location    "50";
    object      gamma;
}
// * * * * * * * * * * * * * * * * * * * * * * * * * * * * * * * * * * * * * //

dimensions      [0 0 0 0 0 0 0];

internalField   nonuniform List<scalar> 
80000
(
1
1
1
1
1
1
1
1
1
1
1
1
1
1
1
1
1
1
1
1
1
1
1
1
1
1
1
1
1
1
1
1
1
1
1
1
1
1
1
1
1
1
1
0.99999
0.99999
0.99999
0.99999
0.99999
0.99999
0.99999
0.99999
0.99999
0.99999
0.99999
0.99999
0.99999
0.99999
0.99999
0.99999
0.99999
0.99999
0.99999
0.99999
0.99999
0.99999
0.99999
0.99999
0.99999
0.99999
0.99999
0.99999
0.99999
0.99999
0.99999
0.99999
0.99999
0.99999
0.99999
0.99999
0.99999
0.99999
0.99999
0.99999
0.99999
0.99999
0.99999
0.99999
0.99999
0.99999
0.99999
0.99999
0.99999
0.99999
0.99999
0.99999
0.99999
0.99999
0.99999
0.99999
0.99999
0.99999
0.99998
0.99998
0.99998
0.99998
0.99998
0.99998
0.99998
0.99998
0.99998
0.99997
0.99997
0.99997
0.99997
0.99997
0.99997
0.99997
0.99997
0.99997
0.99997
0.99997
0.99997
0.99997
0.99997
0.99997
0.99997
0.99997
0.99997
0.99997
0.99997
0.99997
0.99997
0.99997
0.99997
0.99997
0.99997
0.99997
0.99997
0.99997
0.99997
0.99997
0.99997
0.99997
0.99997
0.99997
0.99997
0.99997
0.99997
0.99997
0.99997
0.99997
0.99997
0.99997
0.99997
0.99997
0.99997
0.99997
0.99997
0.99997
0.99997
0.99998
0.99998
0.99998
0.99998
0.99998
0.99998
0.99998
0.99998
0.99998
0.99998
0.99998
0.99998
0.99998
0.99998
0.99998
0.99998
0.99998
0.99998
0.99998
0.99998
0.99998
0.99998
0.99998
0.99998
0.99998
0.99998
0.99998
0.99998
0.99998
0.99998
0.99998
0.99998
0.99998
0.99998
0.99998
0.99998
0.99998
0.99998
0.99998
0.99998
0.99998
0.99998
0.99998
0.99998
0.99998
0.99998
0.99998
0.99998
0.99998
0.99997
0.99997
0.99997
0.99997
0.99997
0.99997
0.99997
0.99997
0.99997
0.99997
0.99997
0.99997
0.99997
0.99997
0.99997
0.99997
0.99997
0.99997
0.99997
0.99997
0.99997
0.99997
0.99997
0.99997
0.99997
0.99997
0.99997
0.99997
0.99997
0.99997
0.99997
0.99997
0.99997
0.99997
0.99997
0.99996
0.99996
0.99996
0.99996
0.99996
0.99995
0.99995
0.99994
0.99994
0.99991
0.99986
0.99977
0.99963
0.9995
0.99938
0.99912
0.99819
0.99374
0.96416
0.71689
0.046705
0.0027849
0.00035237
7.752e-05
2.7022e-05
1.4207e-05
1.2402e-05
1.765e-05
3.6029e-05
7.5543e-05
0.00013196
0.0001584
0.00015197
0.00015503
0.00022331
0.0003824
0.00076339
0.0011554
0.0015372
0.001685
0.0012185
0.00074747
0.00038292
0.00025385
0.00023038
0.00030045
0.0003198
0.00031581
0.00030729
0.00029942
0.00029209
0.00028727
0.00028497
0.00028361
0.00028327
0.00028125
0.0002781
0.00027395
0.00026949
0.00026594
0.00026339
0.00026153
0.00026073
0.00025947
0.00025541
0.00024815
0.00023907
0.00023646
0.00025801
0.00034035
0.00043415
0.00028107
0.00013834
5.5009e-05
3.0685e-05
2.5906e-05
3.4765e-05
3.6991e-05
3.6051e-05
3.4818e-05
3.4043e-05
3.3592e-05
3.319e-05
3.2772e-05
3.2346e-05
3.1926e-05
3.1518e-05
3.112e-05
3.0731e-05
3.035e-05
2.9977e-05
2.9612e-05
2.9254e-05
2.8903e-05
2.856e-05
2.8223e-05
2.7893e-05
2.7571e-05
2.7255e-05
2.6947e-05
2.6646e-05
2.6353e-05
2.6067e-05
2.579e-05
2.552e-05
2.5259e-05
2.5007e-05
2.4764e-05
2.453e-05
2.4306e-05
2.4091e-05
2.3887e-05
2.3692e-05
2.3508e-05
2.3334e-05
2.3171e-05
2.3018e-05
2.2876e-05
2.2744e-05
2.2623e-05
2.2512e-05
2.2411e-05
2.232e-05
2.2238e-05
2.2165e-05
2.2102e-05
2.2046e-05
2.1999e-05
2.1959e-05
2.1925e-05
2.1898e-05
2.1876e-05
2.186e-05
2.1847e-05
2.1839e-05
2.1833e-05
2.183e-05
2.1829e-05
2.183e-05
2.1831e-05
2.1833e-05
2.1836e-05
2.1839e-05
2.1846e-05
2.1848e-05
2.1825e-05
2.1756e-05
2.1738e-05
2.2006e-05
2.2749e-05
2.3082e-05
1.9607e-05
1.6622e-05
1.8669e-05
2.169e-05
2.9939e-05
1
1
1
1
1
1
1
1
1
1
1
1
1
1
1
1
1
1
1
1
1
1
1
1
1
1
1
1
1
1
1
1
1
1
1
1
1
1
1
1
1
1
1
1
1
1
1
1
0.99999
0.99999
0.99999
0.99999
0.99999
0.99999
0.99999
0.99999
0.99999
0.99999
0.99999
0.99999
0.99999
0.99999
0.99999
0.99999
0.99999
0.99999
0.99999
0.99999
0.99999
0.99999
0.99999
0.99999
0.99999
0.99999
0.99999
0.99999
0.99999
0.99999
0.99999
0.99999
0.99999
0.99999
0.99999
0.99999
0.99999
0.99999
0.99999
0.99999
0.99999
0.99999
0.99999
0.99999
0.99999
0.99999
0.99999
0.99999
0.99999
0.99999
0.99999
0.99999
0.99998
0.99998
0.99998
0.99998
0.99998
0.99998
0.99998
0.99998
0.99998
0.99998
0.99998
0.99998
0.99998
0.99998
0.99998
0.99998
0.99998
0.99998
0.99998
0.99998
0.99998
0.99998
0.99998
0.99998
0.99998
0.99998
0.99998
0.99998
0.99998
0.99998
0.99998
0.99998
0.99998
0.99998
0.99998
0.99998
0.99998
0.99998
0.99998
0.99998
0.99998
0.99998
0.99998
0.99998
0.99998
0.99998
0.99998
0.99998
0.99998
0.99998
0.99998
0.99998
0.99998
0.99998
0.99998
0.99998
0.99998
0.99998
0.99998
0.99998
0.99998
0.99998
0.99998
0.99998
0.99998
0.99998
0.99998
0.99998
0.99998
0.99998
0.99998
0.99998
0.99998
0.99998
0.99998
0.99998
0.99998
0.99998
0.99998
0.99998
0.99998
0.99998
0.99998
0.99998
0.99998
0.99998
0.99998
0.99998
0.99998
0.99998
0.99998
0.99998
0.99998
0.99998
0.99998
0.99998
0.99998
0.99998
0.99998
0.99998
0.99998
0.99998
0.99998
0.99998
0.99998
0.99998
0.99998
0.99998
0.99998
0.99998
0.99998
0.99998
0.99998
0.99998
0.99998
0.99998
0.99998
0.99998
0.99998
0.99998
0.99997
0.99997
0.99997
0.99997
0.99997
0.99997
0.99997
0.99997
0.99997
0.99997
0.99997
0.99997
0.99997
0.99997
0.99997
0.99997
0.99997
0.99997
0.99997
0.99997
0.99997
0.99997
0.99997
0.99997
0.99997
0.99997
0.99997
0.99996
0.99996
0.99996
0.99995
0.99995
0.99995
0.99994
0.99991
0.99986
0.99978
0.99967
0.99952
0.99929
0.9987
0.99694
0.98998
0.95947
0.82079
0.3103
0.040656
0.0059441
0.00098776
0.00020277
6.4325e-05
3.424e-05
3.0069e-05
3.4211e-05
4.1437e-05
5.1426e-05
7.1865e-05
0.00011968
0.00024694
0.00053934
0.00088431
0.0011899
0.0013204
0.0011722
0.00075194
0.00043627
0.00024211
0.00018873
0.00019213
0.00024167
0.0002539
0.00024956
0.0002419
0.00023557
0.00023078
0.00022798
0.00022662
0.00022589
0.00022411
0.00022158
0.00021857
0.00021515
0.00021177
0.00020935
0.00020751
0.00020638
0.00020511
0.00020324
0.00019903
0.00019293
0.0001872
0.00019071
0.00021975
0.00025499
0.0002443
0.00013737
6.4869e-05
2.9269e-05
2.0481e-05
2.014e-05
2.5978e-05
2.7188e-05
2.6404e-05
2.5516e-05
2.4965e-05
2.4633e-05
2.4333e-05
2.4023e-05
2.3708e-05
2.34e-05
2.31e-05
2.2808e-05
2.2522e-05
2.2243e-05
2.197e-05
2.1702e-05
2.144e-05
2.1183e-05
2.0932e-05
2.0685e-05
2.0443e-05
2.0207e-05
1.9976e-05
1.975e-05
1.9529e-05
1.9313e-05
1.9103e-05
1.8899e-05
1.8701e-05
1.8509e-05
1.8323e-05
1.8144e-05
1.7971e-05
1.7805e-05
1.7646e-05
1.7494e-05
1.735e-05
1.7213e-05
1.7083e-05
1.6961e-05
1.6847e-05
1.674e-05
1.664e-05
1.6549e-05
1.6464e-05
1.6387e-05
1.6317e-05
1.6254e-05
1.6198e-05
1.6148e-05
1.6104e-05
1.6066e-05
1.6033e-05
1.6005e-05
1.5981e-05
1.5962e-05
1.5947e-05
1.5934e-05
1.5925e-05
1.5918e-05
1.5914e-05
1.5911e-05
1.5909e-05
1.5908e-05
1.5908e-05
1.5908e-05
1.591e-05
1.5914e-05
1.5916e-05
1.5898e-05
1.5846e-05
1.5833e-05
1.6037e-05
1.6597e-05
1.6842e-05
1.4213e-05
1.1995e-05
1.3587e-05
1.5779e-05
2.169e-05
1
1
1
1
1
1
1
1
1
1
1
1
1
1
1
1
1
1
1
1
1
1
1
1
1
1
1
1
1
1
1
1
1
1
1
1
1
1
1
1
1
1
1
1
1
1
1
1
1
1
0.99999
0.99999
0.99999
0.99999
0.99999
0.99999
0.99999
0.99999
0.99999
0.99999
0.99999
0.99999
0.99999
0.99999
0.99999
0.99999
0.99999
0.99999
0.99999
0.99999
0.99999
0.99999
0.99999
0.99999
0.99999
0.99999
0.99999
0.99999
0.99999
0.99999
0.99999
0.99999
0.99999
0.99999
0.99999
0.99999
0.99999
0.99999
0.99999
0.99999
0.99999
0.99999
0.99999
0.99999
0.99999
0.99999
0.99999
0.99998
0.99998
0.99998
0.99998
0.99998
0.99998
0.99998
0.99998
0.99998
0.99998
0.99998
0.99998
0.99998
0.99998
0.99998
0.99998
0.99998
0.99998
0.99998
0.99998
0.99998
0.99998
0.99998
0.99998
0.99998
0.99998
0.99998
0.99998
0.99998
0.99998
0.99998
0.99998
0.99998
0.99998
0.99998
0.99998
0.99998
0.99998
0.99998
0.99998
0.99998
0.99998
0.99998
0.99998
0.99998
0.99998
0.99998
0.99998
0.99998
0.99998
0.99998
0.99998
0.99998
0.99998
0.99998
0.99998
0.99998
0.99998
0.99998
0.99998
0.99998
0.99998
0.99998
0.99998
0.99998
0.99998
0.99998
0.99998
0.99998
0.99998
0.99998
0.99998
0.99998
0.99998
0.99998
0.99998
0.99998
0.99998
0.99998
0.99998
0.99998
0.99998
0.99998
0.99998
0.99998
0.99998
0.99998
0.99998
0.99998
0.99998
0.99998
0.99998
0.99998
0.99998
0.99998
0.99998
0.99998
0.99998
0.99998
0.99998
0.99998
0.99998
0.99998
0.99998
0.99998
0.99998
0.99998
0.99998
0.99998
0.99998
0.99998
0.99998
0.99998
0.99998
0.99998
0.99998
0.99998
0.99998
0.99998
0.99998
0.99998
0.99998
0.99998
0.99998
0.99998
0.99998
0.99997
0.99997
0.99997
0.99997
0.99997
0.99997
0.99997
0.99997
0.99997
0.99997
0.99997
0.99997
0.99997
0.99997
0.99997
0.99997
0.99997
0.99997
0.99997
0.99997
0.99997
0.99997
0.99997
0.99997
0.99996
0.99996
0.99996
0.99995
0.99995
0.99995
0.99994
0.99993
0.9999
0.99986
0.9998
0.99971
0.99962
0.99945
0.99904
0.99772
0.99348
0.98031
0.94603
0.86444
0.61325
0.10625
0.01115
0.0014608
0.00027968
8.5774e-05
3.7402e-05
2.4196e-05
2.4628e-05
3.9756e-05
9.1551e-05
0.00026504
0.00059502
0.00099112
0.0012064
0.0010986
0.0007988
0.00046543
0.00025509
0.00018345
0.00016887
0.00018653
0.00022214
0.00022891
0.00022316
0.00021609
0.00021088
0.0002075
0.00020566
0.00020477
0.00020307
0.00020071
0.00019791
0.00019487
0.00019197
0.00018928
0.0001874
0.00018584
0.00018469
0.00018309
0.00018062
0.00017596
0.00017041
0.00016807
0.00017909
0.00022206
0.00022316
0.00016678
8.1735e-05
3.4272e-05
1.898e-05
1.696e-05
1.88e-05
2.2851e-05
2.3384e-05
2.2637e-05
2.1922e-05
2.1482e-05
2.1201e-05
2.0941e-05
2.0673e-05
2.0404e-05
2.0141e-05
1.9885e-05
1.9637e-05
1.9394e-05
1.9157e-05
1.8925e-05
1.8698e-05
1.8475e-05
1.8257e-05
1.8043e-05
1.7834e-05
1.7629e-05
1.7428e-05
1.7231e-05
1.7039e-05
1.6851e-05
1.6667e-05
1.6488e-05
1.6314e-05
1.6145e-05
1.598e-05
1.5821e-05
1.5667e-05
1.5519e-05
1.5377e-05
1.524e-05
1.5109e-05
1.4984e-05
1.4865e-05
1.4752e-05
1.4646e-05
1.4546e-05
1.4452e-05
1.4365e-05
1.4284e-05
1.4209e-05
1.414e-05
1.4077e-05
1.402e-05
1.3969e-05
1.3923e-05
1.3882e-05
1.3845e-05
1.3814e-05
1.3786e-05
1.3763e-05
1.3743e-05
1.3726e-05
1.3713e-05
1.3701e-05
1.3693e-05
1.3686e-05
1.3681e-05
1.3677e-05
1.3674e-05
1.3672e-05
1.3671e-05
1.3672e-05
1.3674e-05
1.3675e-05
1.3659e-05
1.3614e-05
1.3603e-05
1.3782e-05
1.4271e-05
1.4485e-05
1.219e-05
1.025e-05
1.1659e-05
1.3587e-05
1.8669e-05
1
1
1
1
1
1
1
1
1
1
1
1
1
1
1
1
1
1
1
1
1
1
1
1
1
1
1
1
1
1
1
1
1
1
1
1
1
1
1
1
1
1
1
1
1
1
1
1
1
1
0.99999
0.99999
0.99999
0.99999
0.99999
0.99999
0.99999
0.99999
0.99999
0.99999
0.99999
0.99999
0.99999
0.99999
0.99999
0.99999
0.99999
0.99999
0.99999
0.99999
0.99999
0.99999
0.99999
0.99999
0.99999
0.99999
0.99999
0.99999
0.99999
0.99999
0.99999
0.99999
0.99999
0.99999
0.99999
0.99999
0.99999
0.99999
0.99999
0.99999
0.99999
0.99999
0.99999
0.99999
0.99998
0.99998
0.99998
0.99998
0.99998
0.99998
0.99998
0.99998
0.99998
0.99998
0.99998
0.99998
0.99998
0.99998
0.99998
0.99998
0.99998
0.99998
0.99998
0.99998
0.99998
0.99998
0.99998
0.99998
0.99998
0.99998
0.99998
0.99998
0.99998
0.99998
0.99998
0.99998
0.99998
0.99998
0.99998
0.99998
0.99998
0.99998
0.99998
0.99998
0.99998
0.99998
0.99998
0.99998
0.99998
0.99998
0.99998
0.99998
0.99998
0.99998
0.99998
0.99998
0.99998
0.99998
0.99998
0.99998
0.99998
0.99998
0.99998
0.99998
0.99998
0.99998
0.99998
0.99998
0.99998
0.99998
0.99998
0.99998
0.99998
0.99998
0.99998
0.99998
0.99998
0.99998
0.99998
0.99998
0.99998
0.99998
0.99998
0.99998
0.99998
0.99998
0.99998
0.99998
0.99998
0.99998
0.99998
0.99998
0.99998
0.99998
0.99998
0.99998
0.99998
0.99998
0.99998
0.99998
0.99998
0.99998
0.99998
0.99998
0.99998
0.99998
0.99998
0.99998
0.99998
0.99998
0.99998
0.99998
0.99998
0.99998
0.99998
0.99998
0.99998
0.99998
0.99998
0.99998
0.99998
0.99998
0.99998
0.99998
0.99998
0.99998
0.99998
0.99998
0.99998
0.99998
0.99998
0.99998
0.99998
0.99997
0.99997
0.99997
0.99997
0.99997
0.99997
0.99997
0.99997
0.99997
0.99997
0.99997
0.99997
0.99997
0.99997
0.99997
0.99997
0.99997
0.99997
0.99997
0.99997
0.99997
0.99996
0.99996
0.99996
0.99996
0.99996
0.99995
0.99995
0.99995
0.99995
0.99995
0.99994
0.99993
0.99992
0.99989
0.99985
0.99982
0.9998
0.99978
0.9997
0.99954
0.99919
0.99844
0.99678
0.99101
0.96242
0.79469
0.127
0.008267
0.00083495
0.00014085
4.1128e-05
2.4561e-05
3.0914e-05
7.4279e-05
0.00020848
0.00051485
0.00086338
0.0009413
0.00072558
0.00044709
0.00024262
0.00017035
0.00015288
0.00016475
0.00019187
0.00021109
0.00021071
0.00020348
0.00019703
0.00019282
0.00019067
0.00018985
0.00018862
0.00018629
0.00018345
0.00018031
0.00017744
0.00017512
0.00017306
0.00017163
0.0001704
0.00016881
0.00016685
0.00016363
0.00015836
0.00015349
0.00015575
0.00017806
0.00020858
0.00016195
8.8322e-05
3.5664e-05
1.8073e-05
1.3174e-05
1.5243e-05
1.8576e-05
2.0724e-05
2.057e-05
1.9853e-05
1.9297e-05
1.8955e-05
1.8713e-05
1.8481e-05
1.8244e-05
1.8007e-05
1.7777e-05
1.7554e-05
1.7337e-05
1.7126e-05
1.692e-05
1.6718e-05
1.6521e-05
1.6327e-05
1.6138e-05
1.5953e-05
1.5771e-05
1.5593e-05
1.5418e-05
1.5247e-05
1.508e-05
1.4916e-05
1.4756e-05
1.46e-05
1.4448e-05
1.43e-05
1.4156e-05
1.4016e-05
1.3881e-05
1.375e-05
1.3624e-05
1.3503e-05
1.3387e-05
1.3276e-05
1.3171e-05
1.307e-05
1.2974e-05
1.2884e-05
1.28e-05
1.272e-05
1.2646e-05
1.2577e-05
1.2513e-05
1.2454e-05
1.24e-05
1.2351e-05
1.2307e-05
1.2266e-05
1.223e-05
1.2198e-05
1.217e-05
1.2145e-05
1.2123e-05
1.2104e-05
1.2088e-05
1.2075e-05
1.2063e-05
1.2054e-05
1.2046e-05
1.204e-05
1.2035e-05
1.2031e-05
1.2028e-05
1.2027e-05
1.2028e-05
1.2028e-05
1.2013e-05
1.1972e-05
1.1963e-05
1.2123e-05
1.2561e-05
1.275e-05
1.0699e-05
8.9721e-06
1.025e-05
1.1995e-05
1.6622e-05
1
1
1
1
1
1
1
1
1
1
1
1
1
1
1
1
1
1
1
1
1
1
1
1
1
1
1
1
1
1
1
1
1
1
1
1
1
1
1
1
1
1
1
1
1
0.99999
0.99999
0.99999
0.99999
0.99999
0.99999
0.99999
0.99999
0.99999
0.99999
0.99999
0.99999
0.99999
0.99999
0.99999
0.99999
0.99999
0.99999
0.99999
0.99999
0.99999
0.99999
0.99999
0.99999
0.99999
0.99999
0.99999
0.99999
0.99999
0.99999
0.99999
0.99999
0.99999
0.99999
0.99999
0.99999
0.99999
0.99999
0.99999
0.99999
0.99999
0.99999
0.99999
0.99998
0.99998
0.99998
0.99998
0.99998
0.99997
0.99997
0.99997
0.99997
0.99997
0.99997
0.99997
0.99997
0.99998
0.99998
0.99998
0.99998
0.99998
0.99998
0.99998
0.99998
0.99998
0.99998
0.99998
0.99998
0.99998
0.99998
0.99997
0.99997
0.99997
0.99997
0.99997
0.99997
0.99997
0.99997
0.99997
0.99997
0.99997
0.99997
0.99997
0.99997
0.99997
0.99997
0.99997
0.99997
0.99997
0.99997
0.99997
0.99997
0.99997
0.99997
0.99997
0.99997
0.99997
0.99997
0.99997
0.99997
0.99997
0.99997
0.99997
0.99997
0.99997
0.99997
0.99997
0.99997
0.99997
0.99997
0.99997
0.99997
0.99998
0.99998
0.99998
0.99998
0.99998
0.99998
0.99998
0.99998
0.99998
0.99998
0.99998
0.99998
0.99998
0.99998
0.99998
0.99998
0.99998
0.99998
0.99998
0.99998
0.99998
0.99998
0.99998
0.99998
0.99998
0.99998
0.99998
0.99998
0.99998
0.99998
0.99998
0.99998
0.99998
0.99998
0.99998
0.99998
0.99998
0.99998
0.99998
0.99998
0.99998
0.99998
0.99998
0.99998
0.99998
0.99998
0.99998
0.99998
0.99998
0.99998
0.99998
0.99998
0.99998
0.99997
0.99997
0.99997
0.99997
0.99997
0.99997
0.99997
0.99997
0.99997
0.99997
0.99997
0.99997
0.99997
0.99997
0.99997
0.99997
0.99997
0.99997
0.99996
0.99996
0.99996
0.99996
0.99996
0.99996
0.99996
0.99996
0.99996
0.99996
0.99996
0.99996
0.99996
0.99995
0.99995
0.99995
0.99995
0.99995
0.99995
0.99994
0.99994
0.99994
0.99993
0.99993
0.99993
0.99993
0.99993
0.99993
0.99993
0.99992
0.99991
0.99991
0.99991
0.99992
0.99992
0.99991
0.99989
0.99985
0.99981
0.99965
0.99885
0.9943
0.96695
0.79345
0.11308
0.008037
0.00077836
0.00014338
7.9516e-05
9.0686e-05
0.00015647
0.00028044
0.00039323
0.00041365
0.00033872
0.0002193
0.00017032
0.00016185
0.00018
0.0002158
0.00024747
0.0002518
0.00024401
0.00023369
0.00022652
0.00022243
0.00022091
0.00021943
0.00021746
0.00021382
0.00021003
0.00020663
0.00020402
0.00020184
0.00019992
0.00019831
0.00019625
0.00019402
0.00019145
0.00018702
0.00018041
0.00017566
0.00018466
0.00022765
0.00022869
0.00013747
6.0151e-05
2.4045e-05
1.4097e-05
1.4244e-05
1.994e-05
2.4458e-05
2.5084e-05
2.4234e-05
2.3373e-05
2.2824e-05
2.2476e-05
2.2197e-05
2.1921e-05
2.1641e-05
2.1365e-05
2.1097e-05
2.0838e-05
2.0585e-05
2.0339e-05
2.0099e-05
1.9865e-05
1.9636e-05
1.9412e-05
1.9192e-05
1.8977e-05
1.8766e-05
1.856e-05
1.8357e-05
1.8159e-05
1.7965e-05
1.7775e-05
1.7589e-05
1.7407e-05
1.723e-05
1.7058e-05
1.689e-05
1.6727e-05
1.6568e-05
1.6415e-05
1.6268e-05
1.6125e-05
1.5988e-05
1.5857e-05
1.5732e-05
1.5612e-05
1.5498e-05
1.539e-05
1.5288e-05
1.5192e-05
1.5102e-05
1.5018e-05
1.4939e-05
1.4866e-05
1.4799e-05
1.4737e-05
1.468e-05
1.4628e-05
1.4581e-05
1.4539e-05
1.4501e-05
1.4467e-05
1.4436e-05
1.4409e-05
1.4386e-05
1.4365e-05
1.4347e-05
1.4332e-05
1.4319e-05
1.4308e-05
1.4299e-05
1.4292e-05
1.4286e-05
1.4283e-05
1.4282e-05
1.4281e-05
1.4263e-05
1.4214e-05
1.4203e-05
1.439e-05
1.4902e-05
1.5123e-05
1.2727e-05
1.0699e-05
1.219e-05
1.4213e-05
1.9607e-05
1
1
1
1
1
1
1
1
1
1
1
1
1
1
1
1
1
1
1
1
1
1
1
1
1
1
1
1
1
1
1
1
1
1
1
1
1
1
1
1
0.99999
0.99999
0.99999
0.99999
0.99999
0.99999
0.99999
0.99999
0.99999
0.99999
0.99999
0.99999
0.99999
0.99999
0.99999
0.99999
0.99999
0.99999
0.99999
0.99999
0.99999
0.99999
0.99999
0.99999
0.99999
0.99999
0.99999
0.99999
0.99999
0.99999
0.99999
0.99999
0.99999
0.99999
0.99999
0.99999
0.99999
0.99999
0.99999
0.99999
0.99999
0.99999
0.99999
0.99999
0.99998
0.99998
0.99998
0.99997
0.99997
0.99997
0.99996
0.99996
0.99996
0.99996
0.99996
0.99996
0.99997
0.99997
0.99997
0.99997
0.99997
0.99997
0.99997
0.99997
0.99997
0.99997
0.99997
0.99997
0.99997
0.99997
0.99997
0.99997
0.99997
0.99997
0.99997
0.99997
0.99997
0.99997
0.99997
0.99997
0.99997
0.99997
0.99997
0.99997
0.99997
0.99997
0.99997
0.99997
0.99997
0.99997
0.99997
0.99997
0.99997
0.99997
0.99997
0.99997
0.99997
0.99997
0.99997
0.99997
0.99997
0.99997
0.99997
0.99997
0.99997
0.99997
0.99997
0.99997
0.99997
0.99997
0.99997
0.99997
0.99997
0.99997
0.99997
0.99997
0.99997
0.99997
0.99997
0.99997
0.99997
0.99997
0.99997
0.99997
0.99997
0.99997
0.99997
0.99997
0.99997
0.99997
0.99997
0.99997
0.99997
0.99997
0.99997
0.99997
0.99997
0.99997
0.99997
0.99997
0.99997
0.99997
0.99997
0.99997
0.99997
0.99997
0.99997
0.99997
0.99997
0.99997
0.99997
0.99997
0.99997
0.99997
0.99997
0.99997
0.99997
0.99997
0.99997
0.99997
0.99997
0.99997
0.99997
0.99997
0.99997
0.99997
0.99997
0.99997
0.99997
0.99997
0.99997
0.99997
0.99997
0.99997
0.99997
0.99996
0.99996
0.99996
0.99996
0.99996
0.99996
0.99996
0.99996
0.99996
0.99996
0.99996
0.99996
0.99995
0.99995
0.99995
0.99995
0.99995
0.99995
0.99995
0.99995
0.99995
0.99995
0.99994
0.99994
0.99994
0.99994
0.99994
0.99994
0.99993
0.99993
0.99993
0.99992
0.99992
0.99992
0.99992
0.99991
0.99991
0.99991
0.99991
0.99991
0.99992
0.99993
0.99993
0.99993
0.99993
0.99994
0.99995
0.99996
0.99996
0.99996
0.99996
0.99995
0.99995
0.99989
0.99971
0.99887
0.99451
0.96556
0.78397
0.092895
0.0058376
0.00084333
0.00028724
0.00017742
0.000136
0.00011369
9.9656e-05
8.6815e-05
9.3322e-05
0.00012343
0.00017628
0.00024225
0.00029558
0.00030656
0.00029795
0.00028418
0.00027111
0.00026322
0.00025887
0.00025655
0.00025398
0.00025097
0.00024586
0.00024118
0.00023789
0.00023537
0.00023334
0.00023169
0.00022953
0.00022667
0.00022391
0.00022083
0.00021523
0.00020725
0.00020309
0.00022022
0.00028886
0.00023431
0.00011438
4.3326e-05
2.1166e-05
1.4918e-05
2.0431e-05
2.9032e-05
3.1425e-05
3.0394e-05
2.8864e-05
2.784e-05
2.7253e-05
2.6854e-05
2.6505e-05
2.6162e-05
2.5823e-05
2.5494e-05
2.5176e-05
2.4867e-05
2.4566e-05
2.4272e-05
2.3986e-05
2.3706e-05
2.3433e-05
2.3166e-05
2.2904e-05
2.2649e-05
2.2398e-05
2.2153e-05
2.1912e-05
2.1677e-05
2.1446e-05
2.1221e-05
2.1e-05
2.0784e-05
2.0574e-05
2.0369e-05
2.0169e-05
1.9975e-05
1.9787e-05
1.9604e-05
1.9428e-05
1.9257e-05
1.9093e-05
1.8936e-05
1.8785e-05
1.864e-05
1.8503e-05
1.8372e-05
1.8248e-05
1.8131e-05
1.802e-05
1.7917e-05
1.7819e-05
1.7729e-05
1.7644e-05
1.7566e-05
1.7494e-05
1.7428e-05
1.7367e-05
1.7311e-05
1.7261e-05
1.7215e-05
1.7174e-05
1.7137e-05
1.7104e-05
1.7074e-05
1.7049e-05
1.7026e-05
1.7007e-05
1.699e-05
1.6976e-05
1.6964e-05
1.6954e-05
1.6948e-05
1.6945e-05
1.6941e-05
1.6919e-05
1.6861e-05
1.6847e-05
1.7065e-05
1.7661e-05
1.792e-05
1.5123e-05
1.275e-05
1.4485e-05
1.6842e-05
2.3082e-05
1
1
1
1
1
1
1
1
1
1
1
1
1
1
1
1
1
1
1
1
1
1
1
1
1
1
1
1
1
1
1
1
1
1
1
1
1
1
0.99999
0.99999
0.99999
0.99999
0.99999
0.99999
0.99999
0.99999
0.99999
0.99999
0.99999
0.99999
0.99999
0.99999
0.99999
0.99999
0.99999
0.99999
0.99999
0.99999
0.99999
0.99999
0.99999
0.99999
0.99999
0.99999
0.99999
0.99999
0.99999
0.99999
0.99999
0.99999
0.99999
0.99999
0.99999
0.99999
0.99999
0.99999
0.99999
0.99999
0.99999
0.99999
0.99998
0.99998
0.99998
0.99997
0.99997
0.99997
0.99996
0.99996
0.99996
0.99995
0.99995
0.99996
0.99996
0.99996
0.99996
0.99997
0.99997
0.99997
0.99997
0.99997
0.99997
0.99997
0.99997
0.99997
0.99997
0.99997
0.99997
0.99997
0.99997
0.99997
0.99997
0.99997
0.99997
0.99997
0.99997
0.99997
0.99997
0.99996
0.99996
0.99996
0.99996
0.99996
0.99996
0.99996
0.99996
0.99996
0.99996
0.99996
0.99996
0.99996
0.99996
0.99996
0.99996
0.99996
0.99996
0.99996
0.99996
0.99996
0.99996
0.99996
0.99996
0.99996
0.99996
0.99996
0.99996
0.99996
0.99996
0.99996
0.99996
0.99996
0.99996
0.99996
0.99996
0.99996
0.99996
0.99996
0.99996
0.99996
0.99997
0.99997
0.99997
0.99997
0.99997
0.99997
0.99997
0.99997
0.99997
0.99997
0.99997
0.99997
0.99997
0.99997
0.99997
0.99997
0.99997
0.99997
0.99997
0.99997
0.99997
0.99997
0.99997
0.99997
0.99997
0.99997
0.99997
0.99997
0.99997
0.99997
0.99997
0.99997
0.99997
0.99997
0.99997
0.99997
0.99997
0.99997
0.99997
0.99997
0.99997
0.99997
0.99997
0.99997
0.99997
0.99997
0.99997
0.99997
0.99997
0.99997
0.99997
0.99997
0.99997
0.99996
0.99996
0.99996
0.99996
0.99996
0.99996
0.99996
0.99996
0.99996
0.99996
0.99996
0.99996
0.99995
0.99995
0.99995
0.99995
0.99995
0.99995
0.99995
0.99995
0.99994
0.99994
0.99994
0.99994
0.99994
0.99994
0.99994
0.99993
0.99993
0.99993
0.99993
0.99992
0.99992
0.99992
0.99992
0.99991
0.99991
0.99991
0.99991
0.9999
0.9999
0.9999
0.9999
0.99991
0.99991
0.99992
0.99993
0.99993
0.99994
0.99995
0.99996
0.99996
0.99996
0.99996
0.99996
0.99997
0.99997
0.99997
0.99995
0.99989
0.99967
0.9986
0.99237
0.94919
0.62569
0.044788
0.0039538
0.00062114
0.00014907
5.6607e-05
2.7182e-05
2.3096e-05
3.1971e-05
6.1176e-05
0.00012425
0.00020784
0.00026957
0.0002948
0.0002966
0.00028799
0.00027725
0.00026989
0.00026421
0.0002603
0.00025658
0.0002529
0.00024745
0.00024297
0.00023975
0.00023738
0.00023571
0.00023358
0.00023096
0.00022779
0.00022512
0.00022232
0.00021672
0.00020863
0.00020554
0.00022681
0.00030684
0.00019939
9.0923e-05
3.4077e-05
1.8172e-05
1.4301e-05
2.3955e-05
3.1375e-05
3.245e-05
3.0874e-05
2.9247e-05
2.8225e-05
2.7591e-05
2.7109e-05
2.668e-05
2.6284e-05
2.5916e-05
2.5571e-05
2.5242e-05
2.4923e-05
2.4613e-05
2.431e-05
2.4015e-05
2.3726e-05
2.3443e-05
2.3168e-05
2.2898e-05
2.2635e-05
2.2377e-05
2.2125e-05
2.1878e-05
2.1637e-05
2.14e-05
2.1169e-05
2.0943e-05
2.0722e-05
2.0507e-05
2.0297e-05
2.0093e-05
1.9894e-05
1.9702e-05
1.9515e-05
1.9334e-05
1.9159e-05
1.8991e-05
1.8829e-05
1.8674e-05
1.8525e-05
1.8383e-05
1.8248e-05
1.812e-05
1.7998e-05
1.7883e-05
1.7774e-05
1.7673e-05
1.7577e-05
1.7488e-05
1.7405e-05
1.7328e-05
1.7257e-05
1.7191e-05
1.713e-05
1.7075e-05
1.7024e-05
1.6978e-05
1.6937e-05
1.6899e-05
1.6866e-05
1.6836e-05
1.6809e-05
1.6786e-05
1.6766e-05
1.6748e-05
1.6733e-05
1.6721e-05
1.6712e-05
1.6707e-05
1.6701e-05
1.6677e-05
1.6619e-05
1.6603e-05
1.6818e-05
1.7406e-05
1.7661e-05
1.4902e-05
1.2561e-05
1.4271e-05
1.6597e-05
2.2749e-05
1
1
1
1
1
1
1
1
1
1
1
1
1
1
1
1
1
1
1
1
1
1
1
1
1
1
1
1
1
1
1
1
1
1
1
1
1
0.99999
0.99999
0.99999
0.99999
0.99999
0.99999
0.99999
0.99999
0.99999
0.99999
0.99999
0.99999
0.99999
0.99999
0.99999
0.99999
0.99999
0.99999
0.99999
0.99999
0.99999
0.99998
0.99998
0.99998
0.99998
0.99998
0.99998
0.99998
0.99998
0.99998
0.99999
0.99999
0.99999
0.99999
0.99999
0.99999
0.99999
0.99998
0.99998
0.99998
0.99998
0.99998
0.99997
0.99997
0.99996
0.99996
0.99996
0.99995
0.99995
0.99995
0.99995
0.99996
0.99996
0.99996
0.99996
0.99996
0.99996
0.99996
0.99996
0.99996
0.99996
0.99996
0.99996
0.99996
0.99996
0.99996
0.99996
0.99996
0.99996
0.99996
0.99996
0.99996
0.99996
0.99996
0.99996
0.99996
0.99996
0.99996
0.99996
0.99996
0.99996
0.99996
0.99996
0.99996
0.99996
0.99996
0.99996
0.99996
0.99996
0.99996
0.99996
0.99996
0.99996
0.99996
0.99996
0.99996
0.99996
0.99996
0.99996
0.99996
0.99996
0.99996
0.99996
0.99996
0.99996
0.99996
0.99996
0.99996
0.99996
0.99996
0.99996
0.99996
0.99996
0.99996
0.99996
0.99996
0.99996
0.99996
0.99996
0.99996
0.99996
0.99996
0.99996
0.99996
0.99996
0.99996
0.99996
0.99996
0.99996
0.99996
0.99996
0.99996
0.99996
0.99996
0.99996
0.99996
0.99997
0.99997
0.99997
0.99997
0.99997
0.99997
0.99997
0.99997
0.99997
0.99997
0.99997
0.99997
0.99997
0.99997
0.99997
0.99997
0.99997
0.99997
0.99997
0.99997
0.99997
0.99997
0.99997
0.99997
0.99997
0.99997
0.99997
0.99997
0.99997
0.99997
0.99997
0.99996
0.99996
0.99996
0.99996
0.99996
0.99996
0.99996
0.99996
0.99996
0.99996
0.99996
0.99996
0.99996
0.99996
0.99996
0.99996
0.99996
0.99995
0.99995
0.99995
0.99995
0.99995
0.99995
0.99995
0.99994
0.99994
0.99994
0.99994
0.99994
0.99993
0.99993
0.99993
0.99993
0.99993
0.99992
0.99992
0.99992
0.99992
0.99991
0.99991
0.99991
0.9999
0.9999
0.9999
0.9999
0.9999
0.9999
0.9999
0.9999
0.9999
0.9999
0.9999
0.99991
0.99991
0.99992
0.99992
0.99993
0.99993
0.99994
0.99995
0.99996
0.99996
0.99997
0.99998
0.99998
0.99998
0.99996
0.99992
0.99977
0.9993
0.99718
0.98181
0.87721
0.26411
0.016051
0.0012479
0.00015464
3.4394e-05
1.6259e-05
1.652e-05
2.7303e-05
5.4358e-05
9.5844e-05
0.0001532
0.0002091
0.00025001
0.00026988
0.00027425
0.00027191
0.00026679
0.00026181
0.00025678
0.00025208
0.00024666
0.0002423
0.00023911
0.0002367
0.00023459
0.00023191
0.00022902
0.00022595
0.00022369
0.00022139
0.00021601
0.00020819
0.00020556
0.00022641
0.00030431
0.00019537
8.7316e-05
3.1812e-05
1.6501e-05
1.2763e-05
2.1399e-05
2.8673e-05
3.065e-05
3.0064e-05
2.9047e-05
2.8262e-05
2.7619e-05
2.7023e-05
2.6467e-05
2.5971e-05
2.5539e-05
2.5157e-05
2.481e-05
2.4484e-05
2.417e-05
2.3865e-05
2.3567e-05
2.3276e-05
2.2992e-05
2.2714e-05
2.2442e-05
2.2176e-05
2.1917e-05
2.1663e-05
2.1415e-05
2.1173e-05
2.0936e-05
2.0704e-05
2.0478e-05
2.0257e-05
2.0041e-05
1.9831e-05
1.9627e-05
1.9428e-05
1.9235e-05
1.9048e-05
1.8867e-05
1.8692e-05
1.8523e-05
1.836e-05
1.8204e-05
1.8054e-05
1.7911e-05
1.7775e-05
1.7644e-05
1.7521e-05
1.7404e-05
1.7293e-05
1.7188e-05
1.709e-05
1.6998e-05
1.6912e-05
1.6832e-05
1.6757e-05
1.6688e-05
1.6623e-05
1.6564e-05
1.651e-05
1.646e-05
1.6414e-05
1.6373e-05
1.6336e-05
1.6302e-05
1.6272e-05
1.6245e-05
1.6222e-05
1.6201e-05
1.6183e-05
1.6168e-05
1.6157e-05
1.615e-05
1.6142e-05
1.6117e-05
1.6058e-05
1.6042e-05
1.6249e-05
1.6818e-05
1.7065e-05
1.439e-05
1.2123e-05
1.3782e-05
1.6037e-05
2.2006e-05
1
1
1
1
1
1
1
1
1
1
1
1
1
1
1
1
1
1
1
1
1
1
1
1
1
1
1
1
1
1
1
1
1
1
1
0.99999
0.99999
0.99999
0.99999
0.99999
0.99999
0.99999
0.99999
0.99999
0.99999
0.99999
0.99999
0.99999
0.99999
0.99999
0.99999
0.99999
0.99999
0.99998
0.99998
0.99998
0.99998
0.99998
0.99998
0.99998
0.99998
0.99998
0.99998
0.99998
0.99998
0.99998
0.99999
0.99999
0.99999
0.99998
0.99998
0.99998
0.99998
0.99998
0.99997
0.99997
0.99997
0.99996
0.99996
0.99996
0.99995
0.99995
0.99995
0.99995
0.99995
0.99995
0.99995
0.99996
0.99996
0.99996
0.99996
0.99996
0.99996
0.99996
0.99996
0.99996
0.99996
0.99996
0.99996
0.99996
0.99996
0.99996
0.99996
0.99996
0.99996
0.99996
0.99996
0.99996
0.99996
0.99996
0.99996
0.99996
0.99996
0.99996
0.99996
0.99996
0.99996
0.99996
0.99996
0.99996
0.99996
0.99996
0.99996
0.99996
0.99996
0.99996
0.99996
0.99996
0.99996
0.99996
0.99996
0.99996
0.99996
0.99996
0.99996
0.99996
0.99996
0.99996
0.99996
0.99996
0.99996
0.99996
0.99996
0.99996
0.99996
0.99996
0.99996
0.99996
0.99996
0.99996
0.99996
0.99996
0.99996
0.99996
0.99996
0.99996
0.99996
0.99996
0.99996
0.99996
0.99996
0.99996
0.99996
0.99996
0.99996
0.99996
0.99996
0.99996
0.99996
0.99996
0.99996
0.99996
0.99996
0.99996
0.99996
0.99996
0.99996
0.99996
0.99996
0.99996
0.99996
0.99996
0.99996
0.99996
0.99996
0.99996
0.99996
0.99996
0.99996
0.99996
0.99996
0.99996
0.99996
0.99996
0.99996
0.99996
0.99996
0.99996
0.99996
0.99996
0.99996
0.99996
0.99996
0.99996
0.99996
0.99996
0.99996
0.99996
0.99996
0.99996
0.99996
0.99996
0.99996
0.99996
0.99996
0.99996
0.99996
0.99995
0.99995
0.99995
0.99995
0.99995
0.99995
0.99995
0.99995
0.99994
0.99994
0.99994
0.99994
0.99994
0.99993
0.99993
0.99993
0.99993
0.99992
0.99992
0.99992
0.99991
0.99991
0.99991
0.99991
0.9999
0.9999
0.9999
0.99989
0.99989
0.99989
0.99988
0.99988
0.99988
0.99988
0.99988
0.99989
0.99989
0.99989
0.99989
0.9999
0.9999
0.9999
0.99991
0.99991
0.99991
0.99991
0.99992
0.99993
0.99994
0.99996
0.99997
0.99998
0.99998
0.99997
0.99994
0.99989
0.99979
0.99952
0.9984
0.99362
0.96917
0.82147
0.12779
0.0055394
0.00040529
6.492e-05
2.731e-05
2.0028e-05
2.2434e-05
3.1633e-05
5.4044e-05
9.3681e-05
0.0001471
0.00020085
0.00024054
0.00026144
0.00026733
0.00026611
0.0002617
0.00025687
0.00025143
0.00024692
0.00024328
0.00024049
0.00023735
0.00023424
0.00023125
0.00022857
0.00022679
0.00022467
0.00021962
0.00021221
0.00020919
0.00022616
0.00029138
0.00022829
0.0001241
4.7559e-05
2.1932e-05
1.3805e-05
1.6752e-05
2.1233e-05
2.5503e-05
2.7433e-05
2.8172e-05
2.8356e-05
2.8123e-05
2.7617e-05
2.6988e-05
2.6368e-05
2.5812e-05
2.5334e-05
2.4921e-05
2.4555e-05
2.422e-05
2.3904e-05
2.36e-05
2.3303e-05
2.3014e-05
2.273e-05
2.2453e-05
2.2182e-05
2.1917e-05
2.1658e-05
2.1405e-05
2.1158e-05
2.0916e-05
2.068e-05
2.045e-05