/*--------------------------------*- C++ -*----------------------------------*\
| =========                 |                                                 |
| \\      /  F ield         | OpenFOAM: The Open Source CFD Toolbox           |
|  \\    /   O peration     | Version:  5.x                                   |
|   \\  /    A nd           | Web:      www.OpenFOAM.org                      |
|    \\/     M anipulation  |                                                 |
\*---------------------------------------------------------------------------*/
FoamFile
{
    version     2.0;
    format      ascii;
    class       volScalarField;
    location    "185";
    object      gamma;
}
// * * * * * * * * * * * * * * * * * * * * * * * * * * * * * * * * * * * * * //

dimensions      [0 0 0 0 0 0 0];

internalField   nonuniform List<scalar> 
86400
(
2.193e-08
3.257e-08
6.364e-08
1.807e-07
5.614e-07
1.185e-06
1.427e-06
1.796e-06
2.412e-06
2.48e-06
2.431e-06
1.509e-06
7.896e-07
2.815e-07
4.377e-07
1.334e-06
1.229e-05
3.433e-05
8.194e-05
5.142e-05
4.526e-05
5.271e-05
0.0001106
0.0001176
0.0001563
0.0003445
0.0005647
0.001081
0.001576
0.002081
0.00192
0.001769
0.001548
0.001336
0.001261
0.001519
0.001509
0.001471
0.001192
0.00121
0.001195
0.001365
0.001145
0.0007967
0.000707
0.0008046
0.001168
0.001466
0.001684
0.001503
0.001525
0.001646
0.001776
0.001855
0.001922
0.002271
0.002853
0.00335
0.003651
0.003675
0.003169
0.003195
0.002918
0.002937
0.003503
0.004458
0.005321
0.005586
0.004248
0.003659
0.004288
0.005813
0.008495
0.007857
0.006622
0.00487
0.003239
0.002726
0.003016
0.003344
0.004443
0.004911
0.004332
0.003638
0.003317
0.002871
0.003085
0.003211
0.003697
0.004122
0.003772
0.0042
0.004789
0.006623
0.00765
0.008592
0.007662
0.007863
0.008137
0.007759
0.006915
0.007002
0.00608
0.005131
0.003147
0.002931
0.003223
0.005142
0.005369
0.005087
0.003576
0.003019
0.002475
0.001836
0.001144
0.0007929
0.0006684
0.0006303
0.0005652
0.0005564
0.000655
0.0007756
0.00102
0.001168
0.001071
0.0009405
0.0008042
0.0007158
0.0006268
0.0005126
0.0003292
0.0002442
0.0002002
0.0001706
0.0001524
0.0001619
0.0002067
0.0002826
0.0001279
2.353e-05
4.813e-06
3.958e-06
5.944e-06
7.488e-06
3.622e-06
5.45e-07
5.724e-08
8.971e-09
4.222e-09
2.426e-09
5.615e-09
9.198e-09
4.213e-08
6.891e-08
3.142e-07
9.67e-07
2.631e-06
5.865e-06
0.02426
0.9985
3.232e-08
4.087e-08
7.295e-08
1.57e-07
3.988e-07
7.111e-07
7.774e-07
8.947e-07
9.954e-07
6.245e-07
5.444e-07
4.658e-07
4.439e-07
4.719e-07
9.729e-07
2.466e-06
1.069e-05
3.318e-05
8.82e-05
9.482e-05
0.0001114
0.000181
0.0003667
0.0004924
0.0006706
0.0008887
0.0008393
0.0008867
0.0009198
0.0009089
0.0007775
0.0008319
0.0009098
0.001017
0.001182
0.001567
0.001692
0.001942
0.001948
0.00211
0.00202
0.002084
0.001805
0.001407
0.001262
0.001481
0.001944
0.002547
0.003242
0.003466
0.003971
0.004796
0.005709
0.006492
0.006722
0.005806
0.004705
0.003941
0.003442
0.00335
0.003291
0.003492
0.003101
0.003157
0.003869
0.005996
0.007629
0.008483
0.007036
0.006691
0.008048
0.008815
0.007906
0.005369
0.003653
0.00308
0.00375
0.004985
0.005989
0.006224
0.007207
0.007824
0.008527
0.008511
0.008475
0.007804
0.008599
0.009346
0.01208
0.01564
0.01722
0.01973
0.02029
0.01931
0.01718
0.01572
0.01357
0.01137
0.008441
0.007089
0.006653
0.008386
0.0116
0.01035
0.004841
0.003318
0.003096
0.003867
0.005232
0.005681
0.003802
0.003435
0.003657
0.003868
0.003373
0.002502
0.001863
0.001575
0.001372
0.001386
0.001462
0.001364
0.001322
0.001245
0.001156
0.001322
0.001442
0.001564
0.001422
0.001094
0.0006565
0.000494
0.0004135
0.0004806
0.0005694
0.0005448
0.0005152
0.0004557
0.0002013
5.261e-05
2.545e-05
1.612e-05
1.073e-05
5.855e-06
1.793e-06
2.547e-07
5.682e-08
2.948e-08
4.48e-08
5.678e-08
9.575e-08
1.566e-07
6.683e-07
1.963e-06
1.261e-05
0.0001181
0.001266
0.05557
0.9633
0.9999
6.685e-08
7.863e-08
1.115e-07
1.676e-07
3.423e-07
4.955e-07
4.835e-07
5.248e-07
4.859e-07
3.166e-07
3.207e-07
4.507e-07
6.494e-07
1.139e-06
2.513e-06
8.649e-06
3.244e-05
0.0001257
0.0002581
0.0003284
0.0002624
0.000402
0.0006159
0.0008514
0.001328
0.002145
0.002307
0.00237
0.002316
0.001824
0.001572
0.001973
0.002167
0.002134
0.001885
0.001862
0.001699
0.00194
0.00194
0.00177
0.001282
0.001144
0.000979
0.001026
0.001352
0.002145
0.003209
0.00485
0.007219
0.006764
0.005191
0.003859
0.003033
0.002795
0.0033
0.002995
0.002629
0.002274
0.002114
0.002157
0.002453
0.002884
0.002885
0.003634
0.004064
0.004798
0.005399
0.005806
0.005193
0.005316
0.006022
0.005027
0.003761
0.003144
0.003133
0.005056
0.009394
0.01374
0.01483
0.01507
0.01601
0.01748
0.01993
0.02147
0.0242
0.02378
0.02446
0.0245
0.02016
0.01469
0.00931
0.006125
0.005544
0.007112
0.008515
0.009989
0.01092
0.007899
0.005345
0.004533
0.004346
0.005348
0.007582
0.005975
0.002901
0.002379
0.003017
0.004787
0.008423
0.008595
0.006311
0.007167
0.008821
0.009795
0.007864
0.005461
0.003363
0.002436
0.001924
0.001928
0.001749
0.001694
0.001512
0.001265
0.001068
0.001172
0.001208
0.001304
0.001217
0.0009787
0.0006636
0.0005352
0.000458
0.0006044
0.0007716
0.0006406
0.000497
0.0003422
0.0001635
5.398e-05
2.992e-05
1.489e-05
8.013e-06
4.097e-06
1.732e-06
4.676e-07
1.651e-07
1.392e-07
2.606e-07
6.008e-07
1.7e-06
3.602e-06
1.141e-05
4.244e-05
0.0003787
0.008339
0.2667
0.9739
0.9997
1
1.601e-07
1.642e-07
1.793e-07
1.922e-07
2.787e-07
2.84e-07
2.252e-07
2.217e-07
2.198e-07
1.992e-07
3.014e-07
3.011e-07
3.056e-07
6.933e-07
2.349e-06
6.857e-06
2.579e-05
6.029e-05
3.952e-05
3.045e-05
2.059e-05
2.226e-05
4.457e-05
8.747e-05
0.0001907
0.0004756
0.000822
0.001099
0.001369
0.001324
0.001255
0.002008
0.002808
0.003282
0.002803
0.00245
0.002057
0.002452
0.002558
0.002178
0.001489
0.001423
0.001616
0.0025
0.003139
0.003549
0.002944
0.002868
0.003396
0.003093
0.002003
0.001439
0.001323
0.001264
0.001602
0.001331
0.0009398
0.0007733
0.0009415
0.001343
0.001924
0.002672
0.003157
0.004052
0.004205
0.004298
0.003993
0.003744
0.003244
0.004723
0.007304
0.006525
0.005769
0.005852
0.005093
0.009013
0.01547
0.01801
0.0144
0.01525
0.01261
0.01053
0.009134
0.007327
0.006451
0.00689
0.007204
0.007504
0.006969
0.006677
0.005967
0.004909
0.005381
0.006966
0.008021
0.008797
0.01016
0.006467
0.004101
0.003332
0.003359
0.004461
0.007297
0.006393
0.003084
0.00171
0.001496
0.002233
0.003527
0.003842
0.002955
0.002968
0.002724
0.004174
0.004781
0.005352
0.004527
0.004695
0.003741
0.003962
0.003219
0.003
0.002271
0.001753
0.001455
0.001638
0.001928
0.002242
0.002302
0.001981
0.001424
0.001233
0.001191
0.001389
0.001342
0.0007592
0.0003385
0.0001015
5.112e-05
2.035e-05
1.274e-05
6.475e-06
3.758e-06
2.145e-06
1.488e-06
8.437e-07
6.714e-07
1.677e-06
7.406e-06
1.948e-05
4.583e-05
0.0001067
0.0003232
0.002261
0.03969
0.8297
0.9924
1
1
1
5.045e-07
4.008e-07
3.406e-07
2.935e-07
2.732e-07
2.224e-07
1.356e-07
1.247e-07
1.536e-07
1.782e-07
3.517e-07
2.282e-07
7.713e-08
1.352e-07
7.601e-07
4.257e-06
4.705e-05
4.78e-05
1.111e-05
3.916e-06
3.392e-06
4.009e-06
9.451e-06
1.23e-05
2.825e-05
0.0001234
0.0006457
0.002389
0.005499
0.003784
0.001862
0.001613
0.001337
0.001155
0.001039
0.0008911
0.0006527
0.001001
0.001781
0.002461
0.001515
0.0007316
0.000321
0.0002742
0.0002318
0.0002294
0.000224
0.000362
0.0008395
0.001458
0.001203
0.0007285
0.0008751
0.00112
0.001593
0.001225
0.000714
0.000641
0.0009253
0.001769
0.00333
0.005782
0.008527
0.01098
0.008879
0.005374
0.003739
0.002678
0.001828
0.002054
0.003113
0.002832
0.003918
0.006448
0.006926
0.007194
0.007256
0.004337
0.002165
0.001667
0.0007508
0.0003105
0.0002224
0.0002512
0.0004643
0.001354
0.002792
0.003162
0.003001
0.002949
0.002307
0.002229
0.003094
0.004371
0.006658
0.007284
0.007907
0.004952
0.003583
0.002301
0.001106
0.0007024
0.001054
0.001493
0.001869
0.002361
0.002526
0.003254
0.003936
0.003606
0.002222
0.001777
0.001318
0.002445
0.002483
0.002553
0.001921
0.001876
0.001217
0.001498
0.001346
0.001349
0.001121
0.00085
0.0007024
0.0007138
0.0007483
0.0009399
0.00118
0.001298
0.001278
0.001228
0.001128
0.0009583
0.0006248
0.0002321
6.937e-05
2.222e-05
1.144e-05
4.953e-06
3.539e-06
2.305e-06
2.265e-06
2.829e-06
4.08e-06
4.817e-06
5.595e-06
1.032e-05
3.822e-05
0.0001357
0.000517
0.002462
0.01803
0.3648
0.9524
0.9988
1
1
1
1
9.772e-07
6.666e-07
5.261e-07
4.313e-07
2.817e-07
1.816e-07
1.221e-07
1.172e-07
1.971e-07
3.639e-07
1.035e-06
3.99e-07
6.648e-08
4.555e-08
4.897e-07
2.157e-06
2.331e-05
1.516e-05
3.439e-06
1.235e-06
2.842e-06
4.636e-06
1.145e-05
5.725e-06
5.616e-06
1.204e-05
4.503e-05
0.0002884
0.001319
0.001105
0.0004771
0.0003018
0.0002282
0.0002176
0.0003326
0.0003671
0.0001951
0.0001929
0.0002743
0.000205
5.968e-05
2.037e-05
4.082e-06
1.596e-06
9.744e-07
4.75e-07
1.844e-07
3.038e-07
1.244e-06
4.993e-06
9.141e-06
1.529e-05
3.882e-05
0.0001624
0.0004009
0.000318
0.0001235
8.834e-05
0.0001409
0.0004794
0.001389
0.002837
0.003391
0.004309
0.003823
0.002436
0.002884
0.002532
0.001687
0.001661
0.002737
0.002496
0.003673
0.004179
0.001891
0.0005317
0.0001185
4.266e-05
3.213e-05
5.357e-05
5.699e-05
4.132e-05
2.997e-05
4.614e-05
0.000143
0.0007591
0.002806
0.004017
0.004804
0.005189
0.005084
0.00356
0.00326
0.002805
0.002385
0.002336
0.00205
0.001681
0.001982
0.001819
0.001076
0.0006258
0.0006425
0.0008837
0.001574
0.002213
0.001548
0.001767
0.00191
0.001697
0.0007103
0.0003657
0.0001839
0.000379
0.0005839
0.0009358
0.0009153
0.0008377
0.000595
0.0007172
0.0006002
0.0005548
0.0004572
0.0003504
0.0003037
0.0003059
0.0003069
0.0003911
0.0004946
0.0005197
0.0004213
0.0003336
0.0002651
0.0001854
0.0001436
7.183e-05
4.284e-05
2.211e-05
1.45e-05
6.479e-06
5.155e-06
4.257e-06
4.417e-06
6.288e-06
1.144e-05
2.011e-05
4.713e-05
0.0001642
0.0008378
0.004056
0.02224
0.2137
0.9141
0.9951
0.9999
1
1
1
1
1
1.39e-06
7.529e-07
4.955e-07
3.251e-07
2.528e-07
2.101e-07
2.134e-07
2.647e-07
6.531e-07
1.3e-06
2.945e-06
9.81e-07
6.337e-08
2.71e-08
1.839e-07
1.288e-06
3.211e-05
7.772e-05
2.71e-05
1.458e-05
5.292e-05
6.442e-05
0.0001037
2.559e-05
1.061e-05
1.353e-05
3.924e-05
0.0001738
0.0009198
0.0009091
0.0004597
0.0001675
0.0001143
0.0001348
0.0002526
0.0002787
9.67e-05
5.854e-05
8.64e-05
5.586e-05
8.441e-06
1.06e-06
5.389e-08
6.71e-09
2.714e-09
4.989e-10
1.585e-10
4.098e-10
4.899e-09
5.259e-08
2.415e-07
3.046e-07
3.862e-07
8.864e-07
1.064e-06
1.481e-06
2.24e-06
6.701e-06
3.561e-05
0.0002347
0.0007089
0.001682
0.002468
0.004546
0.004868
0.002495
0.002869
0.002366
0.001683
0.001199
0.001561
0.0008527
0.0008773
0.0007619
0.000353
9.437e-05
1.83e-05
6.846e-06
4.038e-06
6.883e-06
1.114e-05
1.568e-05
1.997e-05
3.98e-05
0.0001068
0.000238
0.0005083
0.000579
0.001094
0.002952
0.003975
0.002923
0.001616
0.0008966
0.0005323
0.0003167
0.0001301
5.973e-05
4.337e-05
3.401e-05
4.394e-05
5.069e-05
0.0001071
0.00039
0.00164
0.002602
0.002043
0.002043
0.001913
0.001214
0.000513
0.0001749
7.728e-05
0.0001552
0.0003793
0.0005909
0.000552
0.0003886
0.0002541
0.0002893
0.0002849
0.0003041
0.0002985
0.0002454
0.0001679
0.0001051
6.65e-05
6.093e-05
7.265e-05
9.597e-05
9.223e-05
7.687e-05
5.341e-05
2.724e-05
2.078e-05
2.211e-05
2.693e-05
2.884e-05
3.366e-05
1.981e-05
1.7e-05
2.112e-05
3.85e-05
9.274e-05
0.0003539
0.001401
0.005452
0.02137
0.1064
0.7217
0.9557
0.9965
0.9999
1
1
1
1
1
1
1
2.746e-06
9.822e-07
4.792e-07
2.88e-07
2.694e-07
2.835e-07
5.275e-07
9.792e-07
1.606e-06
1.201e-06
1.789e-06
4.871e-07
3.259e-08
2.776e-08
2.394e-07
2.323e-06
7.122e-05
0.0003938
0.0004006
0.0006716
0.001596
0.001536
0.00161
0.0004156
0.0001271
4.166e-05
2.732e-05
4.915e-05
0.0001852
0.0002751
0.0002351
0.0001686
0.0001304
0.0002012
0.0004419
0.0005697
0.0001999
0.0001229
0.0001425
3.074e-05
2.018e-06
7.204e-08
2.09e-09
1.744e-10
1.437e-10
2.838e-11
9.038e-12
1.455e-11
4.448e-11
3.757e-10
2.343e-09
3.307e-09
6.18e-09
1.88e-08
2.011e-08
2.455e-08
7.386e-08
6.038e-07
7.935e-06
0.000117
0.0005102
0.001442
0.002547
0.0066
0.00715
0.003684
0.002913
0.001813
0.0008206
0.0003354
0.0001664
6.062e-05
3.951e-05
4.967e-05
4.966e-05
2.786e-05
5.541e-06
2.112e-06
8.574e-07
1.134e-06
2.026e-06
6.215e-06
1.981e-05
6.177e-05
0.0001329
0.0001622
0.0002445
0.0002854
0.0005199
0.001709
0.003238
0.002709
0.000944
0.0005862
0.0003917
0.0002568
0.0001238
4.559e-05
1.268e-05
6.803e-06
1.417e-05
3.552e-05
9.521e-05
0.000161
0.0002296
0.000199
0.0002024
0.0003358
0.0004811
0.0003404
0.0001083
1.673e-05
9.3e-06
2.901e-05
0.0001339
0.0002595
0.0002977
0.000119
5.814e-05
5.628e-05
5.591e-05
5.555e-05
5.73e-05
5.53e-05
4.448e-05
3.187e-05
2.086e-05
1.787e-05
2.066e-05
3.052e-05
3.892e-05
3.9e-05
2.493e-05
1.122e-05
9.284e-06
1.664e-05
5.297e-05
0.0001322
0.0002403
0.0002706
0.0004992
0.001266
0.004198
0.01033
0.03472
0.3117
0.8394
0.9729
0.9963
0.9997
1
1
1
1
1
1
1
1
1
1
5.736e-06
1.169e-06
4.041e-07
2.082e-07
2.304e-07
3.682e-07
1.566e-06
1.852e-06
1.281e-06
5.518e-07
3.221e-07
1.251e-07
3.977e-08
9.536e-08
1.033e-06
7.57e-06
3.858e-05
0.0001092
0.0001117
0.000142
0.0004991
0.001636
0.003967
0.003796
0.002694
0.000663
0.0001613
7.903e-05
0.0001194
0.0002048
0.0003591
0.0003235
0.0002004
0.0002621
0.0003975
0.0004679
0.000203
0.000149
0.0002368
1.571e-05
3.198e-07
3.748e-09
7.307e-11
1.156e-11
7.05e-11
4.755e-11
2.352e-11
2.234e-11
2.244e-11
3.664e-11
2.469e-10
6.112e-10
2.278e-09
3.927e-09
2.165e-09
9.513e-10
2.371e-09
3.596e-08
1.192e-06
4.997e-05
0.0004523
0.001521
0.002346
0.004488
0.003255
0.001036
0.0003852
0.0001564
2.988e-05
9.102e-06
3.197e-06
1.218e-06
7.196e-07
1.467e-06
1.835e-06
5.432e-06
5.059e-06
4.397e-06
2.048e-06
2.767e-06
1.14e-05
0.0001673
0.003109
0.02029
0.04137
0.02589
0.01842
0.02387
0.03381
0.05304
0.05876
0.04889
0.03145
0.03062
0.02214
0.03061
0.02045
0.003458
0.0002944
2.107e-05
1.511e-05
2.276e-05
8.672e-05
0.0001277
8.023e-05
3.713e-05
5.083e-05
6.154e-05
7.32e-05
3.722e-05
8.041e-06
1.576e-06
2.214e-06
3.918e-06
1.421e-05
2.404e-05
3.065e-05
1.393e-05
8.799e-06
5.92e-06
4.863e-06
4.456e-06
4.783e-06
5.618e-06
6.182e-06
5.872e-06
4.359e-06
3.73e-06
4.822e-06
1.134e-05
3.699e-05
0.0001069
0.0001478
0.0001188
0.00014
0.0003537
0.001654
0.006268
0.01164
0.01798
0.05699
0.3733
0.8605
0.9704
0.9935
0.999
0.9999
1
1
1
1
1
1
1
1
1
1
1
1
1
4.833e-06
9.448e-07
4.157e-07
2.793e-07
4.496e-07
9.146e-07
2.154e-06
9.701e-07
3.87e-07
1.893e-07
8.651e-08
1.026e-07
1.355e-07
6.741e-07
8.192e-06
3.014e-05
2.875e-05
1.157e-05
3.763e-06
2.175e-06
8.341e-06
6.725e-05
0.0006499
0.003065
0.004974
0.001306
0.0002086
7.992e-05
7.959e-05
0.0002509
0.0007241
0.0006712
0.0002841
0.0002148
0.0001515
0.0002231
0.0003101
0.0004737
0.0005482
1.712e-05
1.774e-07
1.228e-09
3.797e-11
1.682e-11
3.154e-10
7.28e-10
3.252e-10
8.786e-11
9.877e-12
3.457e-12
2.832e-11
2.242e-10
3.092e-09
9.188e-09
1.8e-09
1.954e-10
2.635e-10
4.578e-09
5.471e-07
5.867e-05
0.0004927
0.001102
0.0004999
0.0003275
9.256e-05
2.1e-05
7.047e-06
3.284e-06
9.859e-07
7.267e-07
5.536e-07
5.433e-07
9.219e-07
7.754e-06
1.918e-05
9.425e-05
0.0003218
0.001565
0.002472
0.00794
0.04812
0.49
0.9217
0.9878
0.9964
0.9983
0.9989
0.9989
0.9984
0.9982
0.9981
0.9983
0.9986
0.9987
0.9983
0.9984
0.9976
0.9915
0.9374
0.314
0.01489
0.008162
0.01041
0.004417
0.0005349
7.217e-05
5.846e-05
4.752e-05
3.413e-05
1.031e-05
1.284e-06
3.979e-07
1.189e-06
2.614e-06
1.383e-05
3.056e-05
6.203e-05
4.561e-05
4.03e-05
2.092e-05
1.534e-05
1.384e-05
1.62e-05
2.52e-05
4.515e-05
7.46e-05
8.356e-05
7.859e-05
0.0001047
0.0002433
0.001124
0.005123
0.01003
0.009842
0.01497
0.04855
0.4819
0.8879
0.97
0.9909
0.9975
0.9994
0.9999
1
1
1
1
1
1
1
1
1
1
1
1
1
1
1
1
1
1.785e-06
4.136e-07
2.953e-07
4.286e-07
1.308e-06
2.965e-06
1.88e-06
4.022e-07
1.037e-07
6.621e-08
5.312e-08
1.509e-07
7.086e-07
7.328e-06
3.355e-05
6.764e-05
1.312e-05
6.257e-07
6.472e-08
3.16e-08
2.191e-07
3.602e-06
0.000151
0.001739
0.00525
0.002019
0.0007584
0.000319
0.000239
0.0005563
0.0009243
0.0003879
6.853e-05
1.64e-05
1.019e-05
1.638e-05
6.135e-05
0.0002511
0.000423
3.131e-05
5.47e-07
4.873e-09
2.464e-10
1.805e-10
1.991e-09
4.574e-09
2.645e-09
4.686e-10
3.034e-11
7.446e-12
5.175e-11
8.145e-10
3.414e-08
1.509e-07
2.555e-08
1.287e-09
1.008e-09
1.456e-08
1.626e-06
0.0001792
0.0007238
0.0004326
7.188e-05
2.584e-05
9.112e-06
2.479e-06
7.512e-07
3.265e-07
1.934e-07
3.571e-07
1.49e-06
9.754e-06
6.649e-05
0.0007464
0.003037
0.02429
0.2777
0.8985
0.968
0.9921
0.9972
0.9992
0.9998
1
1
1
1
1
1
1
1
1
1
1
1
1
1
1
1
0.9997
0.997
0.993
0.9901
0.9712
0.783
0.04874
0.01031
0.002847
0.0006872
6.386e-05
1.333e-05
6.311e-06
3.221e-05
9.356e-05
0.0002748
0.0004417
0.001194
0.001116
0.001174
0.0005269
0.0002738
0.0001613
0.0001463
0.0002694
0.0009672
0.003519
0.007497
0.009026
0.01481
0.04401
0.4705
0.8994
0.9802
0.993
0.9972
0.9986
0.9995
0.9999
1
1
1
1
1
1
1
1
1
1
1
1
1
1
1
1
1
1
1
1
1
1
3.958e-07
1.563e-07
2.053e-07
4.417e-07
1.005e-06
2.264e-06
7.725e-07
2.304e-07
9.476e-08
2.573e-07
2.92e-07
1.945e-06
1.3e-05
5.297e-05
9.761e-05
0.000115
9.071e-06
2.411e-07
1.482e-08
4.629e-09
4.169e-08
2.965e-06
0.0002979
0.002865
0.00608
0.001857
0.0009186
0.0005108
0.000554
0.001139
0.001206
0.0003074
2.652e-05
4.689e-06
1.766e-06
2.997e-06
1.621e-05
6.379e-05
8.666e-05
1.088e-05
3.303e-07
1.206e-08
1.528e-09
1.451e-09
4.598e-09
4.959e-09
2.404e-09
2.448e-10
1.09e-11
3.108e-12
2.203e-11
1.215e-09
2.218e-07
4.057e-06
1.302e-06
5.15e-08
1.52e-08
1.069e-07
4.567e-06
0.0001672
0.0002471
6.223e-05
3.9e-06
6.957e-07
2.458e-07
1.49e-07
1.687e-07
5.304e-07
2.83e-06
1.873e-05
0.0003954
0.004828
0.09212
0.7363
0.94
0.9891
0.9985
0.9999
1
1
1
1
1
1
1
1
1
1
1
1
1
1
1
1
1
1
1
1
1
1
1
1
1
1
0.9999
0.9987
0.9951
0.9787
0.8841
0.1538
0.004085
0.0008012
0.001937
0.005075
0.0157
0.01634
0.02519
0.02796
0.02338
0.01408
0.009582
0.007733
0.01099
0.04207
0.3475
0.8794
0.9759
0.9918
0.9968
0.9985
0.9995
0.9999
1
1
1
1
1
1
1
1
1
1
1
1
1
1
1
1
1
1
1
1
1
1
1
1
1
1
1
1
2.009e-07
1.646e-07
2.433e-07
5.523e-07
1.149e-06
2.148e-06
5.905e-07
2.495e-07
2.606e-07
5.806e-07
1.273e-06
1.069e-05
4.855e-05
0.0001097
0.0001901
0.0001344
1.826e-05
5.848e-07
3.403e-08
6.93e-09
4.688e-08
2.683e-06
0.0002758
0.00254
0.007195
0.003783
0.003334
0.002598
0.002811
0.003555
0.002602
0.0006456
9.853e-05
1.945e-05
5.497e-06
5.959e-06
2.379e-05
6.021e-05
6.327e-05
1.556e-05
1.718e-06
1.394e-07
4.258e-08
2.928e-08
2.106e-08
1.918e-08
6.862e-09
2.045e-09
2.689e-10
1.841e-10
7.539e-10
1.495e-08
6.122e-07
4e-06
1.699e-06
1.801e-07
1.085e-07
5.901e-07
2.08e-05
0.0001168
3.243e-05
3.486e-06
1.937e-07
1.009e-07
2.621e-07
1.065e-06
5.961e-06
0.0001019
0.001877
0.04424
0.7716
0.9719
0.9958
0.9993
0.9999
1
1
1
1
1
1
1
1
1
1
1
1
1
1
1
1
1
1
1
1
1
1
1
1
1
1
1
1
1
1
1
1
1
0.9999
0.9994
0.9982
0.9973
0.9977
0.9978
0.998
0.9967
0.9964
0.9967
0.9968
0.9969
0.9965
0.9958
0.9962
0.9979
0.9991
0.9999
1
1
1
1
1
1
1
1
1
1
1
1
1
1
1
1
1
1
1
1
1
1
1
1
1
1
1
1
1
1
1
1
1
1
2.7e-07
3.165e-07
6.196e-07
9.416e-07
1.693e-06
2.23e-06
1.091e-06
7.23e-07
1.992e-06
2.517e-06
5.58e-06
2.22e-05
7.001e-05
9.398e-05
0.000139
0.0001387
7.912e-05
4.65e-06
3.931e-07
6.085e-08
2.613e-07
7.406e-06
0.0003812
0.001899
0.003404
0.002617
0.003765
0.005037
0.006588
0.00721
0.005239
0.002321
0.0008384
0.000263
6.884e-05
4.673e-05
7.736e-05
0.0001225
0.0001326
7.975e-05
2.06e-05
4.358e-06
2.35e-06
1.569e-06
5.351e-07
5.584e-07
3.244e-07
1.631e-07
3.331e-08
1.782e-08
1.725e-08
7.814e-08
4.21e-07
9.677e-07
4.885e-07
1.898e-07
3.968e-07
4.37e-06
6.554e-05
9.872e-05
1.378e-05
3.535e-06
1.244e-06
3.548e-06
5.063e-05
0.001022
0.01149
0.5134
0.942
0.9923
0.9994
1
1
1
1
1
1
1
1
1
1
1
1
1
1
1
1
1
1
1
1
1
1
1
1
1
1
1
1
1
1
1
1
1
1
1
1
1
1
1
1
1
1
1
1
1
1
1
1
1
1
1
1
1
1
1
1
1
1
1
1
1
1
1
1
1
1
1
1
1
1
1
1
1
1
1
1
1
1
1
1
1
1
1
1
1
1
1
1
1
1.144e-06
1.414e-06
3.183e-06
1.591e-06
2.56e-06
1.935e-06
2.212e-06
3.462e-06
1.179e-05
6.093e-06
1.182e-05
9.645e-06
3.25e-05
2.819e-05
5.374e-05
3.249e-05
9.16e-06
2.585e-07
1.461e-08
2.34e-09
1.067e-08
3.244e-07
2.248e-05
0.0001322
0.00045
0.0005458
0.0008806
0.001716
0.002996
0.003266
0.002731
0.001744
0.001457
0.000942
0.0004308
0.0002455
0.0003313
0.0004215
0.000586
0.0007857
0.0002416
9.028e-05
4.771e-05
4.195e-05
1.684e-05
2.976e-05
2.374e-05
1.772e-05
5.804e-06
3.935e-06
1.793e-06
1.497e-06
1.896e-06
2.619e-06
2.247e-06
1.305e-06
2.855e-06
9.985e-06
5.199e-05
6.636e-05
3.599e-05
3.804e-05
0.0001121
0.002389
0.1404
0.8892
0.9828
0.9989
0.9999
1
1
1
1
1
1
1
1
1
1
1
1
1
1
1
1
1
1
1
1
1
1
1
1
1
1
1
1
1
1
1
1
1
1
1
1
1
1
1
1
1
1
1
1
1
1
1
1
1
1
1
1
1
1
1
1
1
1
1
1
1
1
1
1
1
1
1
1
1
1
1
1
1
1
1
1
1
1
1
1
1
1
1
1
1
1
1
1
1
1
1
2.789e-06
3.976e-06
1.309e-05
5.095e-06
3.947e-06
1.769e-06
2.747e-06
6.322e-06
1.826e-05
7.489e-06
1.338e-05
8.394e-06
1.212e-05
1.817e-05
1.548e-05
1.543e-06
2.131e-07
3.813e-09
1.733e-10
3.297e-11
2.752e-10
2.727e-08
3.922e-06
5.417e-05
0.0003212
0.0002976
0.0007129
0.001402
0.002756
0.00292
0.002606
0.001882
0.002122
0.002242
0.001597
0.001268
0.001743
0.001932
0.002719
0.004574
0.0017
0.0007245
0.000373
0.0004151
0.0001788
0.0001987
0.0001685
0.0001883
0.0001815
0.0001996
0.0001018
4.097e-05
2.286e-05
9.511e-06
5.534e-06
3.859e-06
5.559e-06
1.646e-05
0.0001488
0.0004176
0.001451
0.01308
0.1599
0.8963
0.9925
0.9996
1
1
1
1
1
1
1
1
1
1
1
1
1
1
1
1
1
1
1
1
1
1
1
1
1
1
1
1
1
1
1
1
1
1
1
1
1
1
1
1
1
1
1
1
1
1
1
1
1
1
1
1
1
1
1
1
1
1
1
1
1
1
1
1
1
1
1
1
1
1
1
1
1
1
1
1
1
1
1
1
1
1
1
1
1
1
1
1
1
1
1
1
1
1
6.571e-06
1.309e-05
5.682e-05
2.955e-05
1.25e-05
5.374e-06
1.081e-05
1.702e-05
2.789e-05
1.35e-05
1.485e-05
1.554e-05
2.397e-05
3.406e-05
5.085e-06
1.653e-07
9.253e-09
1.963e-10
1.919e-11
7.682e-12
1.886e-10
2.347e-08
3.053e-06
5.792e-05
0.0005172
0.0004086
0.000735
0.001404
0.00234
0.002123
0.001817
0.001175
0.00163
0.001954
0.002519
0.002837
0.004685
0.004528
0.005703
0.008167
0.003977
0.002558
0.001727
0.001756
0.0006254
0.0004167
0.0001877
0.0001786
0.000305
0.0005927
0.0003834
0.0001136
5.333e-05
1.838e-05
1.944e-05
1.975e-05
4.679e-05
0.0001549
0.002424
0.02943
0.329
0.9071
0.9944
0.9998
1
1
1
1
1
1
1
1
1
1
1
1
1
1
1
1
1
1
1
1
1
1
1
1
1
1
1
1
1
1
1
1
1
1
1
1
1
1
1
1
1
1
1
1
1
1
1
1
1
1
1
1
1
1
1
1
1
1
1
1
1
1
1
1
1
1
1
1
1
1
1
1
1
1
1
1
1
1
1
1
1
1
1
1
1
1
1
1
1
1
1
1
1
1
1
1
4.253e-06
1.353e-05
8.954e-05
4.74e-05
1.801e-05
1.463e-05
3.171e-05
0.000117
0.0001188
5.982e-05
3.351e-05
2.856e-05
2.78e-05
3.641e-05
1.053e-06
2.456e-08
2.016e-09
1.696e-10
4.135e-11
4.038e-11
1.546e-09
1.537e-07
2.224e-05
0.0003032
0.001494
0.0007101
0.0009651
0.001293
0.002058
0.002096
0.001957
0.00143
0.002266
0.002778
0.002702
0.002974
0.003886
0.002213
0.001401
0.001526
0.001375
0.002136
0.004135
0.006006
0.002484
0.0009073
0.0001584
7.483e-05
5.067e-05
6.735e-05
4.724e-05
2.482e-05
3.481e-05
5.472e-05
0.0001128
0.0003432
0.002328
0.01556
0.5905
0.9578
0.9962
0.9998
1
1
1
1
1
1
1
1
1
1
1
1
1
1
1
1
1
1
1
1
1
1
1
1
1
1
1
1
1
1
1
1
1
1
1
1
1
1
1
1
1
1
1
1
1
1
1
1
1
1
1
1
1
1
1
1
1
1
1
1
1
1
1
1
1
1
1
1
1
1
1
1
1
1
1
1
1
1
1
1
1
1
1
1
1
1
1
1
1
1
1
1
1
1
1
1
1
1
1.046e-05
3.152e-05
0.0001436
8.485e-05
1.803e-05
2.158e-05
7.882e-05
0.0004445
0.0004111
0.0001532
5.861e-05
3.661e-05
1.466e-05
1.432e-05
4.205e-07
1.477e-08
4.942e-09
3.011e-09
2.022e-09
4.428e-09
1.183e-07
4.907e-06
0.0002534
0.001922
0.005959
0.002567
0.002788
0.00242
0.002533
0.001995
0.001757
0.001734
0.003311
0.004423
0.003537
0.0033
0.003293
0.001685
0.0008601
0.0006445
0.0004708
0.0007745
0.001547
0.002457
0.001471
0.000863
0.000204
6.065e-05
1.652e-05
9.664e-06
5.705e-06
6.633e-06
3.073e-05
0.000212
0.001364
0.01603
0.4724
0.9303
0.9968
0.9999
1
1
1
1
1
1
1
1
1
1
1
1
1
1
1
1
1
1
1
1
1
1
1
1
1
1
1
1
1
1
1
1
1
1
1
1
1
1
1
1
1
1
1
1
1
1
1
1
1
1
1
1
1
1
1
1
1
1
1
1
1
1
1
1
1
1
1
1
1
1
1
1
1
1
1
1
1
1
1
1
1
1
1
1
1
1
1
1
1
1
1
1
1
1
1
1
1
1
1
1
2.322e-05
6.005e-05
0.000254
0.0001629
3.575e-05
5.798e-05
0.000153
0.0008152
0.0007264
0.0002253
4.64e-05
3.036e-05
1.596e-05
1.238e-05
7.671e-07
8.678e-08
1.088e-07
3.064e-07
4.499e-07
1.088e-06
1.11e-05
0.0001083
0.001042
0.003357
0.0062
0.003188
0.003876
0.003227
0.002942
0.001857
0.002087
0.003204
0.007146
0.01085
0.007182
0.004825
0.002574
0.001131
0.0004649
0.0002934
0.0001821
0.0002929
0.0004893
0.0007177
0.0008167
0.0008019
0.0003211
0.0001231
3.07e-05
8.678e-06
3.437e-06
1.485e-05
0.0002249
0.004776
0.2019
0.9236
0.9965
0.9998
1
1
1
1
1
1
1
1
1
1
1
1
1
1
1
1
1
1
1
1
1
1
1
1
1
1
1
1
1
1
1
1
1
1
1
1
1
1
1
1
1
1
1
1
1
1
1
1
1
1
1
1
1
1
1
1
1
1
1
1
1
1
1
1
1
1
1
1
1
1
1
1
1
1
1
1
1
1
1
1
1
1
1
1
1
1
1
1
1
1
1
1
1
1
1
1
1
1
1
1
1
1
8.428e-05
0.0001991
0.0006013
0.0002506
6.356e-05
9.243e-05
0.0001301
0.0008172
0.001258
0.0005133
0.0001334
0.00014
8.355e-05
5.925e-05
7.715e-06
1.486e-06
2.037e-06
8.378e-06
1.876e-05
8.33e-05
0.0003374
0.0005875
0.0008616
0.000823
0.0007325
0.0008486
0.002681
0.0023
0.002112
0.001153
0.0009965
0.001222
0.003122
0.006225
0.005626
0.00429
0.002391
0.001264
0.0007855
0.0005674
0.0003035
0.000261
0.0002181
0.0001892
0.0002685
0.0004315
0.0004045
0.0003041
0.0001388
4.503e-05
7.061e-05
0.0005223
0.04485
0.8599
0.9928
0.9997
1
1
1
1
1
1
1
1
1
1
1
1
1
1
1
1
1
1
1
1
1
1
1
1
1
1
1
1
1
1
1
1
1
1
1
1
1
1
1
1
1
1
1
1
1
1
1
1
1
1
1
1
1
1
1
1
1
1
1
1
1
1
1
1
1
1
1
1
1
1
1
1
1
1
1
1
1
1
1
1
1
1
1
1
1
1
1
1
1
1
1
1
1
1
1
1
1
1
1
1
1
1
1
1
0.0001474
0.0003207
0.0008498
0.0003175
9.175e-05
5.51e-05
3.929e-05
0.0002868
0.0009787
0.0009954
0.0003843
0.0006828
0.0004364
0.0003026
8.571e-05
3.006e-05
4.15e-05
0.0001638
0.0002549
0.0007857
0.001528
0.001052
0.0005806
0.0003132
0.0002658
0.0004643
0.002911
0.002445
0.002288
0.001348
0.001006
0.0007837
0.001498
0.003242
0.004618
0.005416
0.004285
0.003006
0.002521
0.001692
0.0005489
0.0002491
0.0001168
6.804e-05
9.276e-05
0.0002496
0.0004162
0.0007223
0.001458
0.002173
0.01727
0.6402
0.985
0.9995
1
1
1
1
1
1
1
1
1
1
1
1
1
1
1
1
1
1
1
1
1
1
1
1
1
1
1
1
1
1
0.9999
0.9998
0.9991
0.9977
0.9964
0.9959
0.9968
0.997
0.996
0.9967
0.9978
0.9985
0.9997
0.9999
1
1
1
1
1
1
1
1
1
1
1
1
1
1
1
1
1
1
1
1
1
1
1
1
1
1
1
1
1
1
1
1
1
1
1
1
1
1
1
1
1
1
1
1
1
1
1
1
1
1
1
1
1
1
1
1
1
1
1
1
1
1
0.0002501
0.0004865
0.00129
0.0002946
8.619e-05
1.823e-05
9.38e-06
8.706e-05
0.00107
0.003059
0.002613
0.004595
0.002592
0.001691
0.0007251
0.0004536
0.0003144
0.0007662
0.0007169
0.001602
0.002146
0.001079
0.0005478
0.0002526
0.0004289
0.001071
0.006702
0.005481
0.004077
0.002172
0.001424
0.0006666
0.0007731
0.001482
0.003085
0.006222
0.009116
0.006729
0.00637
0.004187
0.001266
0.0004569
0.00014
6.367e-05
9.101e-05
0.0002706
0.0006644
0.002435
0.01942
0.2202
0.9303
0.9978
1
1
1
1
1
1
1
1
1
1
1
1
1
1
1
1
1
1
1
1
1
1
1
1
1
1
1
0.9999
0.9996
0.998
0.9968
0.9933
0.9856
0.9406
0.709
0.1772
0.04807
0.0216
0.01627
0.01293
0.01747
0.03707
0.1001
0.2044
0.7897
0.956
0.9908
0.997
0.9993
0.9998
1
1
1
1
1
1
1
1
1
1
1
1
1
1
1
1
1
1
1
1
1
1
1
1
1
1
1
1
1
1
1
1
1
1
1
1
1
1
1
1
1
1
1
1
1
1
1
1
1
1
1
1
1
1
1
1
1
1
0.0002307
0.0003573
0.00109
0.0003642
0.0002736
3.893e-05
1.744e-05
5.605e-05
0.0006667
0.001353
0.00212
0.003938
0.003732
0.002562
0.001259
0.001166
0.0007984
0.001367
0.001875
0.002551
0.002386
0.001308
0.0008527
0.0004951
0.000537
0.000896
0.004014
0.00417
0.0048
0.003812
0.002637
0.0008626
0.0006546
0.0007874
0.001929
0.005082
0.009499
0.006091
0.005442
0.003695
0.001279
0.0004792
0.0001752
0.0001515
0.0003056
0.001296
0.005359
0.06298
0.7972
0.986
0.9997
1
1
1
1
1
1
1
1
1
1
1
1
1
1
1
1
1
1
1
1
1
1
1
1
1
0.9999
0.9991
0.9934
0.9673
0.8186
0.1905
0.05298
0.02223
0.007974
0.00239
0.0006286
0.0003312
0.0002728
0.0002433
0.0001549
0.0001105
0.0002231
0.000499
0.0008213
0.001239
0.002694
0.005988
0.02503
0.09891
0.4849
0.8748
0.9802
0.9976
0.9997
0.9999
1
1
1
1
1
1
1
1
1
1
1
1
1
1
1
1
1
1
1
1
1
1
1
1
1
1
1
1
1
1
1
1
1
1
1
1
1
1
1
1
1
1
1
1
1
1
1
1
1
1
1
1
1
0.9999
0.0002465
0.0002504
0.0008168
0.0004535
0.0006933
7.997e-05
4.785e-05
5.255e-05
0.0003059
0.0006191
0.001429
0.002413
0.003694
0.003327
0.001228
0.0009889
0.0008324
0.001625
0.004104
0.005151
0.003954
0.002479
0.002172
0.001642
0.001492
0.001385
0.003052
0.003301
0.004448
0.004865
0.003609
0.0009974
0.0007738
0.0007315
0.001682
0.00425
0.008463
0.005296
0.004457
0.002601
0.0009717
0.0005056
0.0003243
0.0004246
0.001656
0.01259
0.22
0.9302
0.9976
0.9999
1
1
1
1
1
1
1
1
1
1
1
1
1
1
1
1
1
1
1
1
1
1
1
0.9999
0.9989
0.992
0.9487
0.708
0.1133
0.01939
0.001842
0.0005574
0.0003665
0.0001914
6.218e-05
2.558e-05
6.571e-06
5.665e-06
1.087e-05
1.351e-05
9.39e-06
7.86e-06
1.886e-05
4.693e-05
5.72e-05
7.049e-05
6.861e-05
7.654e-05
0.0002141
0.0005394
0.0008534
0.002988
0.01828
0.1592
0.765
0.9515
0.9948
0.9994
0.9999
1
1
1
1
1
1
1
1
1
1
1
1
1
1
1
1
1
1
1
1
1
1
1
1
1
1
1
1
1
1
1
1
1
1
1
1
1
1
1
1
1
1
1
1
1
1
0.9998
0.9987
0.995
0.9875
0.9557
0.0003571
0.0001933
0.0006784
0.0003729
0.0007884
0.0001096
8.262e-05
4e-05
0.0001089
0.000243
0.0006893
0.001514
0.003965
0.004723
0.001254
0.0007936
0.0009685
0.002754
0.00337
0.002028
0.0008455
0.0007809
0.001938
0.004774
0.004275
0.001977
0.001833
0.002283
0.003661
0.004551
0.004137
0.00182
0.001628
0.001081
0.001286
0.001476
0.001799
0.001175
0.001523
0.001207
0.0006662
0.0005554
0.0007828
0.002719
0.04288
0.7067
0.9813
0.9995
1
1
1
1
1
1
1
1
1
1
1
1
1
1
1
1
1
1
1
1
1
1
1
0.9998
0.9966
0.9558
0.6943
0.1092
0.01478
0.001979
0.0003069
0.0001048
2.337e-05
1.531e-05
1.424e-05
1.098e-05
3.116e-06
2.332e-06
1.104e-06
1.556e-06
3.096e-06
4.998e-06
4.353e-06
4.063e-06
8.806e-06
1.893e-05
1.354e-05
9.105e-06
4.881e-06
4.283e-06
9.152e-06
1.386e-05
1.303e-05
2.571e-05
9.396e-05
0.0005756
0.004052
0.02945
0.1871
0.7394
0.9636
0.9979
1
1
1
1
1
1
1
1
1
1
1
1
1
1
1
1
1
1
1
1
1
1
1
1
1
1
1
1
1
1
1
1
1
1
1
1
1
1
1
1
1
0.9997
0.9987
0.9941
0.9653
0.7785
0.2256
0.06114
0.04667
0.003909
0.0004405
0.0001777
0.0008057
0.0004032
0.0007022
0.00012
8.35e-05
4.315e-05
0.0001367
0.0002605
0.0003814
0.00071
0.002513
0.004248
0.0009658
0.000569
0.0005508
0.001521
0.001565
0.001245
0.0003333
0.0003138
0.0007981
0.004459
0.005031
0.0026
0.002131
0.002445
0.00396
0.004589
0.004649
0.003483
0.003954
0.002798
0.002014
0.000988
0.0005739
0.00035
0.0005887
0.0007886
0.001046
0.001675
0.00781
0.09513
0.8973
0.995
0.9999
1
1
1
1
1
1
1
1
1
1
1
1
1
1
1
1
1
1
1
1
1
1
0.9994
0.9883
0.9107
0.1539
0.01087
0.001831
0.0007277
0.000199
5.065e-05
1.223e-05
4.85e-06
2.831e-06
4.403e-06
6.646e-06
9.958e-06
5.355e-06
6.433e-06
3.76e-06
6.511e-06
1.282e-05