/*--------------------------------*- C++ -*----------------------------------*\
| =========                 |                                                 |
| \\      /  F ield         | OpenFOAM: The Open Source CFD Toolbox           |
|  \\    /   O peration     | Version:  5.x                                   |
|   \\  /    A nd           | Web:      www.OpenFOAM.org                      |
|    \\/     M anipulation  |                                                 |
\*---------------------------------------------------------------------------*/
FoamFile
{
    version     2.0;
    format      ascii;
    class       volScalarField;
    location    "15";
    object      gamma;
}
// * * * * * * * * * * * * * * * * * * * * * * * * * * * * * * * * * * * * * //

dimensions      [0 0 0 0 0 0 0];

internalField   nonuniform List<scalar> 
80000
(
1
0.99983
0.99951
0.99896
0.99836
0.99783
0.99748
0.99719
0.99684
0.99642
0.99595
0.99542
0.99484
0.99423
0.99357
0.99288
0.99219
0.99149
0.99079
0.99008
0.98936
0.98864
0.98791
0.98718
0.98644
0.9857
0.98495
0.9842
0.98344
0.98268
0.98191
0.98114
0.98036
0.97959
0.97881
0.97802
0.97724
0.97645
0.97566
0.97486
0.97407
0.97328
0.97248
0.97169
0.9709
0.97011
0.96933
0.96855
0.96777
0.967
0.96623
0.96547
0.96472
0.96398
0.96325
0.96252
0.96181
0.96111
0.96043
0.95976
0.95911
0.95847
0.95786
0.95727
0.9567
0.95615
0.95564
0.95515
0.95468
0.95424
0.95382
0.95343
0.95307
0.95274
0.95245
0.9522
0.952
0.95183
0.9517
0.9516
0.95154
0.95152
0.95155
0.95165
0.95184
0.95213
0.95251
0.95296
0.95347
0.95406
0.95483
0.9559
0.95738
0.95738
0.95667
0.95592
0.95261
0.94875
0.94607
0.93977
0.93191
0.92421
0.91758
0.91235
0.912
0.91086
0.90934
0.90776
0.9063
0.90497
0.90375
0.90259
0.9015
0.90047
0.89949
0.89856
0.89767
0.89682
0.89601
0.89523
0.89449
0.89377
0.89308
0.89242
0.89179
0.89118
0.89058
0.89001
0.88946
0.88893
0.88841
0.88791
0.88742
0.88695
0.88649
0.88604
0.8856
0.88517
0.88476
0.88435
0.88395
0.88356
0.88318
0.8828
0.88243
0.88207
0.88171
0.88136
0.88101
0.88066
0.88031
0.87997
0.87963
0.87929
0.87895
0.87862
0.87828
0.87794
0.8776
0.87726
0.87692
0.87657
0.87623
0.87588
0.87552
0.87516
0.8748
0.87444
0.87406
0.87369
0.8733
0.87292
0.87252
0.87212
0.87171
0.87129
0.87086
0.87042
0.86997
0.86951
0.86905
0.86859
0.86812
0.86764
0.86714
0.86663
0.8661
0.86557
0.86502
0.86445
0.86387
0.86328
0.86267
0.86204
0.86139
0.86073
0.86005
0.85935
0.85862
0.85788
0.85711
0.85633
0.85552
0.85468
0.85382
0.85293
0.85201
0.85107
0.8501
0.84909
0.84806
0.84699
0.84588
0.84474
0.84356
0.84235
0.84109
0.83979
0.83844
0.83705
0.83561
0.83411
0.83259
0.83102
0.8294
0.82771
0.82597
0.82416
0.82229
0.82035
0.81835
0.81627
0.81412
0.8119
0.80959
0.8072
0.80472
0.80215
0.79949
0.79673
0.79386
0.79089
0.7878
0.78459
0.78126
0.7778
0.7742
0.77046
0.76656
0.76248
0.75824
0.75385
0.74929
0.74455
0.73959
0.73442
0.72901
0.72338
0.71751
0.71139
0.705
0.69834
0.69139
0.68415
0.6766
0.66872
0.66045
0.65177
0.64269
0.63308
0.62281
0.61266
0.60277
0.59398
0.58747
0.58523
0.58413
0.57877
0.56468
0.54418
0.51886
0.49952
0.48589
0.47636
0.46817
0.45874
0.44725
0.43146
0.41168
0.38993
0.37283
0.3587
0.3452
0.33173
0.31873
0.30766
0.29858
0.29064
0.28332
0.2755
0.26728
0.25888
0.25076
0.24341
0.23683
0.2308
0.22521
0.21967
0.21404
0.2087
0.20394
0.19984
0.19671
0.19521
0.18971
0.16641
0.13929
0.11347
0.097547
0.090062
0.09016
0.088964
0.087184
0.085305
0.083532
0.081896
0.080365
0.078916
0.077536
0.076216
0.074952
0.073739
0.072573
0.07145
0.070369
0.069325
0.068318
0.067345
0.066405
0.065497
0.064619
0.063771
0.062951
0.062159
0.061395
0.060657
0.059947
0.059263
0.058606
0.057975
0.057369
0.05679
0.056237
0.05571
0.055208
0.054733
0.054283
0.053858
0.053459
0.053085
0.052736
0.052411
0.05211
0.051832
0.051578
0.051345
0.051135
0.050945
0.050775
0.050623
0.05049
0.050374
0.050273
0.050187
0.050114
0.050054
0.050004
0.049965
0.049933
0.049909
0.049891
0.049879
0.04987
0.049865
0.049862
0.049861
0.049861
0.049861
0.04986
0.049856
0.049847
0.049861
0.049956
0.050166
0.050091
0.04829
0.046708
0.048114
0.049912
0.053661
0.99945
0.99953
0.99944
0.99925
0.99881
0.9984
0.99809
0.99783
0.99751
0.99713
0.9967
0.99621
0.99568
0.99511
0.99449
0.99384
0.99318
0.99252
0.99185
0.99118
0.9905
0.98982
0.98913
0.98844
0.98774
0.98704
0.98633
0.98562
0.98491
0.98419
0.98346
0.98273
0.982
0.98127
0.98053
0.97979
0.97904
0.9783
0.97755
0.9768
0.97605
0.9753
0.97455
0.9738
0.97305
0.97231
0.97156
0.97082
0.97009
0.96936
0.96864
0.96792
0.96721
0.96651
0.96582
0.96514
0.96446
0.96381
0.96316
0.96253
0.96191
0.96132
0.96074
0.96018
0.95964
0.95913
0.95865
0.95819
0.95775
0.95734
0.95695
0.95658
0.95625
0.95594
0.95567
0.95543
0.95524
0.95509
0.95498
0.95491
0.95489
0.95494
0.95505
0.95527
0.9556
0.95604
0.95659
0.95719
0.95783
0.95852
0.95808
0.95711
0.9562
0.95357
0.95077
0.94901
0.94491
0.94027
0.93643
0.93111
0.92538
0.92195
0.91817
0.91501
0.91468
0.91367
0.91234
0.91096
0.90966
0.90846
0.90734
0.90627
0.90526
0.90429
0.90336
0.90247
0.90162
0.9008
0.90002
0.89927
0.89855
0.89785
0.89718
0.89653
0.89591
0.89531
0.89472
0.89416
0.89361
0.89308
0.89256
0.89206
0.89157
0.8911
0.89064
0.89019
0.88975
0.88932
0.8889
0.88848
0.88808
0.88768
0.88729
0.88691
0.88653
0.88616
0.88579
0.88543
0.88507
0.88471
0.88436
0.88401
0.88365
0.88331
0.88296
0.88261
0.88226
0.88191
0.88156
0.88121
0.88085
0.8805
0.88014
0.87977
0.87941
0.87904
0.87866
0.87828
0.8779
0.87751
0.87711
0.87671
0.8763
0.87589
0.87546
0.87503
0.87459
0.87415
0.87369
0.87323
0.87276
0.87228
0.8718
0.8713
0.87078
0.87026
0.86972
0.86916
0.8686
0.86802
0.86743
0.86682
0.8662
0.86555
0.86489
0.86422
0.86352
0.86281
0.86207
0.86132
0.86054
0.85974
0.85891
0.85806
0.85719
0.85629
0.85536
0.8544
0.85342
0.8524
0.85135
0.85027
0.84916
0.848
0.84681
0.84558
0.84431
0.843
0.84164
0.84024
0.8388
0.8373
0.83577
0.83418
0.83255
0.83084
0.82909
0.82726
0.82538
0.82343
0.82141
0.81932
0.81716
0.81492
0.8126
0.81019
0.80769
0.80511
0.80243
0.79965
0.79676
0.79377
0.79066
0.78744
0.78408
0.7806
0.77697
0.77319
0.76927
0.76518
0.76092
0.75651
0.75192
0.74713
0.74214
0.73693
0.73148
0.72582
0.71991
0.71375
0.70732
0.70061
0.69362
0.68633
0.67871
0.67075
0.66241
0.65366
0.64447
0.63472
0.62433
0.61424
0.60476
0.59694
0.59185
0.58845
0.58313
0.57277
0.5554
0.53273
0.51251
0.49673
0.48586
0.47784
0.47022
0.46039
0.4474
0.4291
0.40805
0.38664
0.3698
0.35542
0.34147
0.32795
0.31542
0.30477
0.29578
0.28774
0.27961
0.27122
0.26267
0.25417
0.24609
0.23886
0.2323
0.22628
0.22039
0.21458
0.20873
0.20328
0.19842
0.19447
0.19173
0.18639
0.17393
0.14917
0.12384
0.1024
0.090695
0.085635
0.085521
0.084248
0.082479
0.080647
0.078927
0.077339
0.075855
0.074451
0.073116
0.071842
0.070622
0.069453
0.06833
0.067249
0.066209
0.065206
0.064238
0.063304
0.062402
0.06153
0.060688
0.059874
0.059088
0.058328
0.057596
0.056889
0.056208
0.055552
0.054921
0.054316
0.053735
0.053179
0.052648
0.052141
0.051659
0.051202
0.050768
0.050359
0.049974
0.049613
0.049275
0.048961
0.048669
0.048399
0.048151
0.047924
0.047718
0.047531
0.047363
0.047213
0.04708
0.046963
0.046861
0.046773
0.046697
0.046634
0.046581
0.046537
0.046502
0.046474
0.046453
0.046436
0.046424
0.046416
0.04641
0.046406
0.046404
0.046403
0.046401
0.046396
0.046387
0.046401
0.046494
0.046698
0.046624
0.044872
0.043351
0.044751
0.046434
0.049912
0.9982
0.99861
0.99878
0.9989
0.99852
0.9981
0.99781
0.99755
0.99721
0.99682
0.9964
0.99593
0.99542
0.99486
0.99425
0.99361
0.99296
0.99231
0.99165
0.991
0.99033
0.98966
0.98899
0.98831
0.98763
0.98694
0.98625
0.98555
0.98485
0.98415
0.98344
0.98273
0.98201
0.98129
0.98057
0.97985
0.97912
0.9784
0.97767
0.97694
0.97621
0.97547
0.97474
0.97402
0.97329
0.97256
0.97184
0.97112
0.97041
0.9697
0.969
0.96831
0.96762
0.96694
0.96627
0.96561
0.96497
0.96433
0.96371
0.9631
0.96251
0.96193
0.96138
0.96084
0.96032
0.95983
0.95937
0.95893
0.95852
0.95813
0.95776
0.95742
0.9571
0.95682
0.95657
0.95636
0.95619
0.95606
0.956
0.95599
0.95606
0.95622
0.95649
0.95688
0.95741
0.95807
0.95778
0.95687
0.95568
0.95474
0.95266
0.95087
0.94885
0.94493
0.94068
0.93715
0.9325
0.92789
0.9258
0.92233
0.91879
0.91744
0.91561
0.91403
0.91372
0.91286
0.91174
0.91056
0.90943
0.90837
0.90736
0.90639
0.90545
0.90454
0.90366
0.90281
0.902
0.90121
0.90045
0.89972
0.89901
0.89833
0.89766
0.89702
0.8964
0.89579
0.89521
0.89464
0.89409
0.89355
0.89302
0.89251
0.89202
0.89153
0.89106
0.89059
0.89014
0.88969
0.88926
0.88883
0.88841
0.888
0.88759
0.88719
0.88679
0.8864
0.88601
0.88563
0.88525
0.88487
0.88449
0.88412
0.88375
0.88338
0.88301
0.88263
0.88226
0.88189
0.88152
0.88114
0.88076
0.88038
0.88
0.87961
0.87922
0.87883
0.87843
0.87802
0.87761
0.8772
0.87678
0.87635
0.87591
0.87547
0.87502
0.87457
0.87411
0.87364
0.87316
0.87268
0.87218
0.87168
0.87116
0.87063
0.87009
0.86953
0.86896
0.86838
0.86779
0.86718
0.86656
0.86592
0.86527
0.86459
0.86391
0.8632
0.86247
0.86173
0.86096
0.86018
0.85937
0.85854
0.85768
0.85681
0.8559
0.85497
0.85401
0.85302
0.85201
0.85096
0.84988
0.84877
0.84762
0.84644
0.84521
0.84395
0.84265
0.8413
0.83992
0.8385
0.83703
0.83551
0.83395
0.83233
0.83065
0.82891
0.82712
0.82526
0.82334
0.82136
0.81931
0.81719
0.81499
0.81271
0.81036
0.80792
0.80539
0.80277
0.80005
0.79724
0.79432
0.79129
0.78815
0.78489
0.7815
0.77797
0.77431
0.77051
0.76656
0.76245
0.75818
0.75374
0.74912
0.7443
0.73929
0.73405
0.72859
0.72291
0.717
0.71084
0.70441
0.69771
0.69072
0.68343
0.67582
0.66785
0.65951
0.65074
0.64152
0.63181
0.62163
0.61205
0.60363
0.59761
0.59251
0.58645
0.57656
0.56151
0.54083
0.52168
0.50507
0.49323
0.48534
0.47872
0.47133
0.46104
0.44507
0.4254
0.40414
0.38389
0.36772
0.35311
0.33918
0.32604
0.31419
0.30401
0.29516
0.28654
0.27788
0.2691
0.26035
0.25194
0.24406
0.23697
0.23042
0.22427
0.21815
0.21209
0.20607
0.20051
0.19569
0.19205
0.18982
0.1801
0.16189
0.13592
0.11113
0.094556
0.086817
0.083745
0.083333
0.081929
0.080139
0.078331
0.076641
0.07508
0.073621
0.072243
0.070933
0.069685
0.068491
0.067348
0.066252
0.065197
0.064182
0.063205
0.062262
0.061352
0.060473
0.059625
0.058805
0.058012
0.057247
0.056508
0.055794
0.055106
0.054443
0.053804
0.053189
0.052598
0.052032
0.051489
0.05097
0.050475
0.050003
0.049555
0.04913
0.048728
0.04835
0.047994
0.047661
0.04735
0.04706
0.046792
0.046545
0.046318
0.04611
0.045922
0.045751
0.045598
0.045461
0.04534
0.045233
0.045139
0.045059
0.044989
0.04493
0.044881
0.04484
0.044806
0.044779
0.044757
0.04474
0.044727
0.044718
0.044711
0.044706
0.044702
0.044699
0.044693
0.044683
0.044697
0.044789
0.04499
0.044918
0.043195
0.041694
0.043085
0.044751
0.048114
0.99554
0.99666
0.99724
0.99784
0.99753
0.99711
0.99684
0.99658
0.99623
0.99582
0.99537
0.99488
0.99436
0.99379
0.99318
0.99255
0.9919
0.99125
0.9906
0.98995
0.98929
0.98862
0.98796
0.98728
0.98661
0.98592
0.98524
0.98455
0.98386
0.98316
0.98246
0.98176
0.98105
0.98035
0.97964
0.97892
0.97821
0.97749
0.97677
0.97606
0.97534
0.97462
0.9739
0.97319
0.97247
0.97176
0.97106
0.97036
0.96966
0.96897
0.96829
0.96761
0.96694
0.96629
0.96564
0.965
0.96438
0.96376
0.96316
0.96258
0.96201
0.96145
0.96092
0.9604
0.95991
0.95944
0.959
0.95858
0.95819
0.95783
0.9575
0.9572
0.95693
0.95671
0.95652
0.95636
0.95625
0.95619
0.95621
0.95633
0.95658
0.95695
0.95746
0.9571
0.95625
0.95525
0.95274
0.94979
0.9473
0.94521
0.94158
0.93871
0.9344
0.92884
0.92327
0.92013
0.91553
0.91104
0.90942
0.90801
0.90764
0.90918
0.91008
0.91034
0.91006
0.90942
0.90859
0.90769
0.90681
0.90594
0.90509
0.90424
0.90341
0.90258
0.90178
0.90099
0.90022
0.89947
0.89874
0.89803
0.89733
0.89666
0.896
0.89536
0.89473
0.89412
0.89353
0.89295
0.89238
0.89182
0.89128
0.89075
0.89023
0.88972
0.88922
0.88873
0.88825
0.88778
0.88731
0.88685
0.8864
0.88596
0.88551
0.88508
0.88465
0.88422
0.8838
0.88338
0.88296
0.88254
0.88213
0.88172
0.88131
0.88089
0.88048
0.88007
0.87966
0.87924
0.87883
0.87841
0.87799
0.87757
0.87714
0.87671
0.87627
0.87583
0.87539
0.87494
0.87448
0.87402
0.87355
0.87308
0.8726
0.87211
0.87162
0.87112
0.87062
0.87011
0.86959
0.86906
0.86851
0.86795
0.86738
0.8668
0.8662
0.86559
0.86497
0.86434
0.86369
0.86303
0.86235
0.86166
0.86095
0.86022
0.85948
0.85872
0.85794
0.85714
0.85632
0.85547
0.85461
0.85372
0.85281
0.85187
0.85091
0.84992
0.84891
0.84786
0.84679
0.84568
0.84454
0.84337
0.84216
0.84091
0.83963
0.83831
0.83695
0.83556
0.83412
0.83264
0.83112
0.82955
0.82792
0.82623
0.82449
0.82269
0.82083
0.81891
0.81693
0.81489
0.81277
0.81059
0.80833
0.80599
0.80357
0.80107
0.79848
0.7958
0.79302
0.79015
0.78717
0.78409
0.78089
0.77756
0.77412
0.77054
0.76684
0.763
0.75902
0.75488
0.75059
0.74612
0.74147
0.73662
0.73159
0.72634
0.72089
0.71523
0.70934
0.70322
0.69684
0.6902
0.68327
0.67603
0.66847
0.66053
0.65219
0.64345
0.63435
0.62501
0.61575
0.60773
0.60183
0.5968
0.59001
0.57966
0.56374
0.5426
0.52322
0.50714
0.49586
0.48965
0.48541
0.48008
0.47261
0.4591
0.44091
0.42055
0.40001
0.38172
0.36614
0.35153
0.33785
0.32534
0.31438
0.30489
0.29589
0.28673
0.2775
0.26828
0.25944
0.25124
0.24362
0.23669
0.23016
0.22368
0.21724
0.21087
0.20464
0.19892
0.1942
0.19095
0.18592
0.1694
0.14514
0.11832
0.098981
0.087669
0.083961
0.082753
0.081888
0.080275
0.07843
0.076628
0.074953
0.073405
0.071956
0.070589
0.069293
0.068059
0.066882
0.065756
0.064677
0.06364
0.062644
0.061685
0.060761
0.059869
0.059008
0.058177
0.057375
0.056599
0.05585
0.055127
0.054428
0.053755
0.053105
0.052478
0.051876
0.051296
0.05074
0.050206
0.049696
0.049208
0.048743
0.0483
0.047879
0.047481
0.047105
0.04675
0.046418
0.046106
0.045815
0.045544
0.045294
0.045062
0.04485
0.044655
0.044478
0.044317
0.044172
0.044042
0.043926
0.043824
0.043733
0.043654
0.043585
0.043526
0.043476
0.043433
0.043397
0.043367
0.043343
0.043323
0.043307
0.043295
0.043286
0.043279
0.043273
0.043265
0.043254
0.043267
0.043358
0.043556
0.043485
0.041784
0.040304
0.041694
0.043351
0.046708
0.99148
0.9933
0.99432
0.99529
0.99489
0.99428
0.99398
0.99368
0.99325
0.99274
0.99221
0.99167
0.99109
0.99049
0.98984
0.98917
0.98849
0.98781
0.98713
0.98644
0.98574
0.98504
0.98434
0.98363
0.98292
0.98221
0.98149
0.98077
0.98004
0.97931
0.97858
0.97784
0.97711
0.97637
0.97563
0.97488
0.97414
0.97339
0.97265
0.9719
0.97116
0.97041
0.96967
0.96893
0.96819
0.96746
0.96673
0.96601
0.96529
0.96459
0.96389
0.96319
0.96251
0.96184
0.96118
0.96054
0.95991
0.95929
0.95868
0.95809
0.95752
0.95696
0.95642
0.9559
0.95541
0.95495
0.95451
0.95411
0.95374
0.95341
0.95313
0.9529
0.95274
0.95264
0.95257
0.95253
0.95253
0.95259
0.95277
0.95311
0.95253
0.95145
0.95023
0.94747
0.94439
0.94199
0.93744
0.93215
0.92717
0.92353
0.91845
0.91508
0.91093
0.90529
0.89981
0.89728
0.89518
0.89447
0.89627
0.89777
0.89892
0.89971
0.90013
0.90019
0.89995
0.89951
0.89895
0.89832
0.89767
0.89699
0.89629
0.89556
0.89483
0.89409
0.89334
0.89261
0.89187
0.89115
0.89044
0.88974
0.88904
0.88836
0.8877
0.88704
0.8864
0.88576
0.88514
0.88453
0.88393
0.88334
0.88276
0.88219
0.88163
0.88108
0.88054
0.88
0.87947
0.87895
0.87844
0.87793
0.87742
0.87693
0.87643
0.87594
0.87546
0.87497
0.87449
0.87401
0.87354
0.87306
0.87259
0.87212
0.87164
0.87117
0.8707
0.87022
0.86975
0.86927
0.86879
0.86831
0.86782
0.86733
0.86684
0.86634
0.86584
0.86533
0.86481
0.86429
0.86377
0.86324
0.8627
0.86216
0.86162
0.86107
0.86051
0.85994
0.85936
0.85878
0.85818
0.85757
0.85695
0.85631
0.85566
0.855
0.85432
0.85363
0.85293
0.85222
0.85149
0.85074
0.84998
0.84921
0.84841
0.8476
0.84678
0.84593
0.84506
0.84417
0.84327
0.84234
0.84139
0.84041
0.83941
0.83839
0.83733
0.83626
0.83515
0.83402
0.83285
0.83165
0.83042
0.82916
0.82785
0.82652
0.82515
0.82374
0.8223
0.82082
0.81931
0.81773
0.81612
0.81445
0.81273
0.81095
0.80912
0.80722
0.80528
0.80327
0.8012
0.79907
0.79687
0.7946
0.79225
0.78983
0.78733
0.78475
0.78208
0.77933
0.77648
0.77354
0.7705
0.76735
0.76409
0.76072
0.75722
0.75362
0.74989
0.74604
0.74206
0.73792
0.73363
0.72917
0.72455
0.71974
0.71476
0.70959
0.70424
0.69869
0.69295
0.68698
0.68079
0.67435
0.66763
0.66061
0.65324
0.64544
0.63727
0.62882
0.62037
0.61236
0.60546
0.60077
0.59655
0.59028
0.57968
0.56383
0.54232
0.52297
0.50718
0.49676
0.49156
0.48906
0.48585
0.48128
0.47062
0.45515
0.43671
0.41755
0.3994
0.38341
0.36874
0.35445
0.34142
0.32984
0.31991
0.31064
0.30153
0.29192
0.28234
0.27314
0.26463
0.25675
0.24943
0.24256
0.23575
0.22898
0.2223
0.21575
0.20944
0.20358
0.19901
0.19616
0.18634
0.16329
0.13531
0.10991
0.094055
0.087454
0.086812
0.086508
0.085096
0.0832
0.08123
0.079365
0.07764
0.076039
0.07454
0.073127
0.071788
0.070516
0.069305
0.068147
0.067039
0.065977
0.064956
0.063975
0.063029
0.062118
0.061239
0.06039
0.05957
0.058779
0.058014
0.057275
0.056562
0.055873
0.055209
0.054568
0.053951
0.053358
0.052787
0.05224
0.051715
0.051213
0.050733
0.050276
0.049841
0.049428
0.049037
0.048668
0.04832
0.047993
0.047686
0.0474
0.047134
0.046887
0.046658
0.046448
0.046255
0.046078
0.045918
0.045772
0.04564
0.045522
0.045417
0.045323
0.04524
0.045167
0.045104
0.045048
0.045001
0.04496
0.044926
0.044897
0.044874
0.044855
0.044839
0.044828
0.044818
0.044806
0.044793
0.044805
0.044896
0.045098
0.045026
0.043296
0.041784
0.043195
0.044872
0.04829
0.98576
0.98838
0.98992
0.99138
0.99097
0.99023
0.99
0.98975
0.98929
0.98871
0.98808
0.98744
0.98679
0.98613
0.98545
0.98476
0.98406
0.98335
0.98264
0.98192
0.9812
0.98047
0.97974
0.979
0.97825
0.9775
0.97675
0.976
0.97524
0.97447
0.97371
0.97294
0.97217
0.9714
0.97062
0.96984
0.96907
0.96829
0.96751
0.96673
0.96595
0.96518
0.9644
0.96363
0.96287
0.96211
0.96135
0.96061
0.95987
0.95913
0.95841
0.9577
0.957
0.95632
0.95564
0.95498
0.95434
0.95371
0.95309
0.9525
0.95192
0.95136
0.95083
0.95032
0.94984
0.94939
0.94897
0.9486
0.94828
0.94803
0.94787
0.94781
0.94786
0.94798
0.94815
0.94832
0.94851
0.94762
0.94613
0.94451
0.94131
0.93779
0.93503
0.93005
0.92444
0.91942
0.9128
0.90581
0.9011
0.89691
0.8919
0.88911
0.88574
0.88308
0.88208
0.88373
0.88515
0.88628
0.88713
0.88773
0.88811
0.8883
0.88834
0.88825
0.88805
0.88778
0.88745
0.88705
0.88659
0.88609
0.88553
0.88493
0.88429
0.88364
0.88297
0.88228
0.88159
0.8809
0.88021
0.87952
0.87883
0.87815
0.87747
0.8768
0.87613
0.87547
0.87482
0.87418
0.87354
0.87291
0.87229
0.87168
0.87107
0.87047
0.86987
0.86928
0.8687
0.86812
0.86755
0.86698
0.86641
0.86585
0.86529
0.86473
0.86418
0.86363
0.86308
0.86254
0.86199
0.86144
0.8609
0.86035
0.85981
0.85926
0.85871
0.85816
0.85761
0.85705
0.85649
0.85593
0.85536
0.85479
0.85422
0.85364
0.85305
0.85246
0.85186
0.85126
0.85065
0.85004
0.84943
0.84881
0.84818
0.84755
0.8469
0.84624
0.84557
0.84489
0.8442
0.84349
0.84277
0.84204
0.84129
0.84053
0.83976
0.83898
0.83818
0.83737
0.83654
0.8357
0.83484
0.83396
0.83307
0.83215
0.83122
0.83027
0.8293
0.82831
0.8273
0.82627
0.82521
0.82413
0.82303
0.8219
0.82074
0.81956
0.81834
0.8171
0.81583
0.81453
0.81319
0.81182
0.81041
0.80898
0.80752
0.80602
0.80448
0.8029
0.80128
0.7996
0.79788
0.79611
0.79429
0.79241
0.79048
0.7885
0.78647
0.78437
0.78221
0.78
0.77771
0.77536
0.77293
0.77044
0.76787
0.76522
0.76249
0.75968
0.75678
0.75379
0.75071
0.74752
0.74423
0.74085
0.73736
0.73377
0.73008
0.72626
0.72232
0.71824
0.71401
0.70964
0.70511
0.70044
0.69561
0.69062
0.68547
0.68015
0.67465
0.66896
0.66309
0.65698
0.6506
0.6439
0.63679
0.62926
0.62148
0.61382
0.60695
0.60168
0.59624
0.59214
0.58628
0.57674
0.56221
0.54337
0.52406
0.5087
0.49889
0.49464
0.4934
0.49184
0.48916
0.48097
0.46791
0.45172
0.43473
0.41852
0.40354
0.38938
0.37542
0.3615
0.34918
0.33837
0.32881
0.31954
0.31023
0.30019
0.29041
0.28141
0.27313
0.2655
0.25839
0.25136
0.24423
0.23718
0.23028
0.22358
0.21717
0.21115
0.20658
0.20391
0.18816
0.16012
0.13015
0.1083
0.095218
0.092333
0.092612
0.091423
0.089445
0.087239
0.085104
0.083128
0.081304
0.079607
0.078016
0.076517
0.0751
0.073757
0.072478
0.07126
0.070095
0.068979
0.067909
0.066882
0.065893
0.064941
0.064024
0.063139
0.062284
0.061459
0.060663
0.059894
0.059151
0.058434
0.057742
0.057075
0.056432
0.055813
0.055218
0.054647
0.054098
0.053573
0.05307
0.052591
0.052133
0.051699
0.051286
0.050895
0.050526
0.050178
0.049851
0.049544
0.049258
0.04899
0.048742
0.048512
0.048299
0.048103
0.047923
0.047759
0.047609
0.047473
0.04735
0.047239
0.04714
0.047052
0.046973
0.046904
0.046843
0.04679
0.046745
0.046706
0.046673
0.046646
0.046623
0.046606
0.046591
0.046575
0.046559
0.046568
0.04666
0.046864
0.04679
0.045026
0.043485
0.044918
0.046624
0.050091
0.97862
0.98189
0.98388
0.98584
0.98561
0.98497
0.98505
0.98505
0.98478
0.98435
0.98382
0.98326
0.98267
0.98206
0.98142
0.98076
0.98009
0.9794
0.9787
0.978
0.97728
0.97655
0.97582
0.97509
0.97434
0.97359
0.97284
0.97207
0.97131
0.97054
0.96977
0.96899
0.96821
0.96743
0.96664
0.96586
0.96507
0.96428
0.96349
0.9627
0.96191
0.96112
0.96033
0.95955
0.95877
0.958
0.95723
0.95647
0.95572
0.95499
0.95426
0.95354
0.95283
0.95214
0.95146
0.95079
0.95015
0.94952
0.94891
0.94832
0.94776
0.94724
0.94675
0.9463
0.94588
0.9455
0.94515
0.94486
0.94466
0.94457
0.94463
0.94485
0.94521
0.94449
0.94304
0.94121
0.93959
0.9366
0.93381
0.93053
0.92505
0.91902
0.91366
0.90675
0.8996
0.89503
0.88863
0.88214
0.87855
0.87524
0.87338
0.87429
0.87525
0.87627
0.87726
0.87811
0.87875
0.87917
0.87937
0.87941
0.87935
0.87922
0.87906
0.87889
0.87872
0.87853
0.87831
0.87804
0.87771
0.87732
0.87686
0.87636
0.87582
0.87524
0.87464
0.87401
0.87337
0.87271
0.87205
0.87137
0.8707
0.87002
0.86934
0.86866
0.86798
0.8673
0.86663
0.86595
0.86529
0.86462
0.86396
0.86331
0.86266
0.86201
0.86136
0.86072
0.86008
0.85945
0.85882
0.85819
0.85757
0.85694
0.85632
0.8557
0.85508
0.85446
0.85385
0.85323
0.85261
0.85199
0.85137
0.85075
0.85013
0.84951
0.84888
0.84825
0.84762
0.84699
0.84635
0.8457
0.84505
0.8444
0.84374
0.84307
0.8424
0.84173
0.84105
0.84037
0.83969
0.83899
0.83829
0.83758
0.83686
0.83613
0.83539
0.83464
0.83387
0.83309
0.8323
0.83149
0.83067
0.82984
0.829
0.82815
0.82728
0.82639
0.8255
0.82458
0.82365
0.82271
0.82174
0.82076
0.81977
0.81875
0.81771
0.81666
0.81559
0.81449
0.81337
0.81224
0.81107
0.80989
0.80868
0.80744
0.80618
0.80489
0.80358
0.80223
0.80085
0.79944
0.79801
0.79655
0.79505
0.79353
0.79197
0.79038
0.78875
0.78707
0.78535
0.78358
0.78176
0.7799
0.778
0.77604
0.77404
0.77199
0.76988
0.76772
0.7655
0.76322
0.76088
0.75847
0.756
0.75346
0.75086
0.74818
0.74543
0.74259
0.73968
0.73668
0.7336
0.73043
0.72718
0.72385
0.72043
0.71691
0.7133
0.70957
0.70572
0.70177
0.69768
0.69348
0.68915
0.6847
0.68012
0.67541
0.67055
0.66554
0.66036
0.65503
0.64953
0.6438
0.6378
0.63145
0.62474
0.61777
0.61098
0.60512
0.60122
0.59745
0.59098
0.58436
0.57433
0.56084
0.5438
0.52876
0.51326
0.50392
0.50047
0.50041
0.50042
0.49929
0.49243
0.48119
0.46712
0.45235
0.43835
0.42539
0.41269
0.39982
0.38625
0.3726
0.36054
0.34958
0.33971
0.3301
0.32048
0.31017
0.30035
0.29131
0.28303
0.27543
0.26798
0.26054
0.25301
0.24568
0.23862
0.23182
0.22523
0.21904
0.21426
0.21133
0.19017
0.16084
0.13106
0.11053
0.098606
0.097549
0.096732
0.094754
0.092289
0.089802
0.087488
0.085372
0.083419
0.081601
0.079898
0.078295
0.076783
0.075352
0.073994
0.072701
0.071468
0.07029
0.069162
0.068081
0.067043
0.066044
0.065083
0.064158
0.063265
0.062405
0.061574
0.060773
0.06
0.059254
0.058534
0.05784
0.057172
0.056529
0.05591
0.055315
0.054745
0.054198
0.053674
0.053174
0.052697
0.052242
0.05181
0.051401
0.051013
0.050646
0.050301
0.049976
0.049671
0.049386
0.04912
0.048872
0.048642
0.048429
0.048232
0.048051
0.047884
0.047732
0.047594
0.047468
0.047354
0.047251
0.047159
0.047076
0.047003
0.046939
0.046883
0.046834
0.046792
0.046757
0.046727
0.046703
0.046683
0.046663
0.046642
0.046649
0.046738
0.04694
0.046864
0.045098
0.043556
0.04499
0.046698
0.050166
0.96943
0.97341
0.97595
0.97857
0.97865
0.9783
0.97879
0.97915
0.97917
0.97895
0.97861
0.97819
0.97773
0.97722
0.97667
0.97608
0.97548
0.97484
0.9742
0.97353
0.97285
0.97216
0.97146
0.97074
0.97002
0.96929
0.96855
0.9678
0.96705
0.96629
0.96553
0.96476
0.96398
0.9632
0.96242
0.96164
0.96085
0.96006
0.95927
0.95848
0.95768
0.95689
0.9561
0.95531
0.95453
0.95375
0.95298
0.95221
0.95146
0.95072
0.94998
0.94926
0.94855
0.94785
0.94717
0.94651
0.94586
0.94525
0.94466
0.94412
0.94363
0.9432
0.94283
0.94253
0.94227
0.94203
0.94183
0.9417
0.94169
0.94185
0.94101
0.93961
0.93803
0.93463
0.93066
0.92716
0.92405
0.91907
0.9149
0.90884
0.90139
0.89387
0.88909
0.88254
0.87599
0.87254
0.86945
0.86777
0.86864
0.86929
0.86979
0.87022
0.87063
0.87103
0.87138
0.8716
0.87168
0.87162
0.87144
0.87118
0.87089
0.87061
0.87035
0.87013
0.86994
0.86976
0.86957
0.86934
0.86906
0.86873
0.86835
0.86791
0.86744
0.86692
0.86637
0.86579
0.86519
0.86456
0.86392
0.86327
0.8626
0.86192
0.86124
0.86055
0.85986
0.85917
0.85847
0.85777
0.85708
0.85638
0.85568
0.85498
0.85429
0.85359
0.8529
0.8522
0.85151
0.85082
0.85013
0.84944
0.84875
0.84806
0.84738
0.84669
0.846
0.84531
0.84462
0.84393
0.84324
0.84254
0.84184
0.84115
0.84044
0.83974
0.83903
0.83832
0.8376
0.83688
0.83615
0.83542
0.83468
0.83394
0.83319
0.83244
0.83169
0.83093
0.83016
0.82939
0.82862
0.82783
0.82703
0.82622
0.8254
0.82457
0.82372
0.82286
0.82198
0.8211
0.8202
0.81929
0.81837
0.81744
0.8165
0.81554
0.81457
0.81358
0.81258
0.81156
0.81052
0.80947
0.8084
0.80731
0.8062
0.80508
0.80394
0.80277
0.80159
0.80039
0.79917
0.79792
0.79665
0.79536
0.79405
0.79271
0.79134
0.78994
0.78852
0.78708
0.7856
0.78411
0.78259
0.78104
0.77946
0.77785
0.77621
0.77453
0.7728
0.77104
0.76923
0.76738
0.7655
0.76358
0.76162
0.75961
0.75756
0.75546
0.75331
0.75111
0.74886
0.74656
0.7442
0.74178
0.73931
0.73678
0.73418
0.73152
0.72879
0.72599
0.72312
0.72018
0.71719
0.71411
0.71098
0.70777
0.70449
0.70111
0.69766
0.6941
0.69045
0.68672
0.68289
0.67898
0.67497
0.67086
0.66664
0.66231
0.65786
0.65327
0.64853
0.64363
0.63855
0.63324
0.62767
0.62186
0.61596
0.61037
0.60585
0.60343
0.60117
0.59611
0.58596
0.57397
0.55763
0.54283
0.52998
0.5193
0.50992
0.50749
0.50903
0.51107
0.51201
0.50649
0.49634
0.48378
0.4706
0.45846
0.44767
0.43677
0.42558
0.41386
0.40128
0.38808
0.37585
0.36436
0.35379
0.3435
0.33334
0.3229
0.31301
0.30387
0.29539
0.28733
0.27931
0.27135
0.26344
0.2559
0.24871
0.24172
0.23493
0.22856
0.22336
0.21986
0.19774
0.16816
0.13808
0.11705
0.10443
0.10264
0.10076
0.098074
0.095169
0.0924
0.089879
0.087587
0.085475
0.08351
0.081672
0.079948
0.078324
0.076791
0.075339
0.07396
0.072648
0.071397
0.070203
0.06906
0.067964
0.066913
0.065903
0.064932
0.063997
0.063097
0.062229
0.061393
0.060587
0.059809
0.05906
0.058339
0.057644
0.056975
0.056332
0.055713
0.05512
0.054551
0.054007
0.053486
0.052989
0.052514
0.052063
0.051634
0.051228
0.050843
0.050479
0.050136
0.049813
0.04951
0.049227
0.048961
0.048714
0.048484
0.04827
0.048072
0.04789
0.047722
0.047567
0.047426
0.047297
0.04718
0.047074
0.046978
0.046893
0.046817
0.046749
0.04669
0.046639
0.046595
0.046558
0.046527
0.046501
0.046475
0.04645
0.046453
0.046538
0.046738
0.04666
0.044896
0.043358
0.044789
0.046494
0.049957
0.95662
0.96156
0.96489
0.96845
0.96906
0.9692
0.97028
0.97117
0.97162
0.97175
0.97168
0.97151
0.97126
0.97093
0.97053
0.97009
0.9696
0.96907
0.96852
0.96794
0.96733
0.96671
0.96607
0.96541
0.96473
0.96405
0.96335
0.96264
0.96192
0.96118
0.96045
0.9597
0.95895
0.95819
0.95742
0.95665
0.95588
0.9551
0.95432
0.95354
0.95275
0.95196
0.95117
0.95039
0.9496
0.94882
0.94804
0.94728
0.94652
0.94577
0.94504
0.94432
0.94361
0.94291
0.94224
0.94159
0.94099
0.94042
0.93992
0.93949
0.93915
0.93892
0.93881
0.93878
0.9388
0.93882
0.93885
0.93773
0.93595
0.93403
0.9304
0.92644
0.92326
0.91759
0.91102
0.90475
0.89994
0.89348
0.88893
0.8834
0.87631
0.86948
0.86596
0.86285
0.86122
0.86223
0.86304
0.86364
0.86405
0.86428
0.8644
0.86443
0.86442
0.86436
0.86425
0.86405
0.86378
0.86343
0.86304
0.86263
0.86223
0.86185
0.86153
0.86124
0.861
0.86077
0.86055
0.86031
0.86003
0.85972
0.85936
0.85896
0.85852
0.85805
0.85753
0.85699
0.85641
0.85581
0.85519
0.85454
0.85389
0.85321
0.85253
0.85183
0.85112
0.85041
0.84969
0.84896
0.84823
0.8475
0.84676
0.84602
0.84528
0.84453
0.84379
0.84304
0.84229
0.84154
0.84078
0.84003
0.83927
0.83852
0.83776
0.837
0.83623
0.83547
0.8347
0.83393
0.83315
0.83238
0.8316
0.83081
0.83002
0.82923
0.82843
0.82763
0.82682
0.82601
0.82518
0.82436
0.82353
0.8227
0.82187
0.82102
0.82017
0.81932
0.81845
0.81758
0.8167
0.8158
0.8149
0.81397
0.81304
0.81209
0.81113
0.81016
0.80918
0.80819
0.80718
0.80617
0.80514
0.8041
0.80304
0.80198
0.80089
0.79979
0.79868
0.79755
0.7964
0.79523
0.79405
0.79285
0.79164
0.7904
0.78915
0.78788
0.78659
0.78527
0.78394
0.78259
0.78122
0.77982
0.7784
0.77696
0.77549
0.774
0.77248
0.77095
0.7694
0.76783
0.76623
0.76461
0.76295
0.76126
0.75954
0.75778
0.75598
0.75416
0.7523
0.75041
0.74848
0.74653
0.74454
0.74251
0.74044
0.73834
0.73619
0.734
0.73176
0.72948
0.72716
0.72478
0.72236
0.71989
0.71736
0.71478
0.71215
0.70946
0.70671
0.70392
0.70109
0.6982
0.69525
0.69225
0.68918
0.68604
0.68283
0.67956
0.67622
0.67283
0.66937
0.66586
0.66228
0.65863
0.65489
0.65106
0.64712
0.64304
0.63882
0.63439
0.62975
0.62488
0.61989
0.61507
0.6109
0.60811
0.60764
0.60717
0.60347
0.59416
0.57831
0.55932
0.54264
0.53019
0.52125
0.51638
0.51462
0.51804
0.5225
0.52616
0.52277
0.51387
0.50214
0.49021
0.47956
0.47059
0.46177
0.45227
0.44214
0.43134
0.4198
0.40755
0.3952
0.38294
0.37142
0.36023
0.34951
0.33884
0.32878
0.31929
0.31034
0.30146
0.29274
0.28421
0.27595
0.26819
0.26074
0.25348
0.24646
0.23988
0.23423
0.23003
0.21221
0.18597
0.15596
0.13228
0.11606
0.10962
0.1054
0.10201
0.098637
0.09554
0.092758
0.090243
0.087935
0.085796
0.083801
0.081933
0.08018
0.078527
0.076966
0.075488
0.074084
0.07275
0.071478
0.070264
0.069103
0.067992
0.066926
0.065903
0.06492
0.063974
0.063065
0.062189
0.061346
0.060534
0.059752
0.059
0.058275
0.057578
0.056908
0.056265
0.055647
0.055055
0.054487
0.053944
0.053425
0.05293
0.052458
0.052009
0.051583
0.051178
0.050795
0.050433
0.050092
0.04977
0.049468
0.049184
0.048919
0.048671
0.048439
0.048224
0.048024
0.047839
0.047668
0.047511
0.047366
0.047234
0.047113
0.047004
0.046905
0.046816
0.046737
0.046667
0.046606
0.046553
0.046507
0.046468
0.046435
0.046404
0.046374
0.046372
0.046453
0.046649
0.046568
0.044805
0.043267
0.044697
0.046401
0.049861