/*--------------------------------*- C++ -*----------------------------------*\
| =========                 |                                                 |
| \\      /  F ield         | OpenFOAM: The Open Source CFD Toolbox           |
|  \\    /   O peration     | Version:  5.x                                   |
|   \\  /    A nd           | Web:      www.OpenFOAM.org                      |
|    \\/     M anipulation  |                                                 |
\*---------------------------------------------------------------------------*/
FoamFile
{
    version     2.0;
    format      ascii;
    class       volScalarField;
    location    "70";
    object      gamma;
}
// * * * * * * * * * * * * * * * * * * * * * * * * * * * * * * * * * * * * * //

dimensions      [0 0 0 0 0 0 0];

internalField   nonuniform List<scalar> 
80000
(
1
1
1
1
1
1
1
1
1
1
1
1
1
1
1
1
1
1
1
1
1
1
1
1
1
1
1
1
1
1
1
1
1
1
1
1
1
1
1
1
1
1
1
1
1
1
1
1
1
1
1
1
1
1
1
1
1
1
1
1
1
1
1
1
1
1
1
1
1
1
1
1
1
1
1
1
1
1
1
1
1
1
1
1
1
1
1
1
1
1
1
1
1
1
1
1
1
1
1
1
1
1
1
1
1
1
1
1
1
1
1
1
1
1
1
1
1
1
1
1
1
1
1
1
1
1
1
1
1
1
1
1
1
1
1
1
1
1
1
1
1
1
1
1
1
1
1
1
1
1
1
1
1
1
1
1
1
1
1
1
1
1
1
1
1
1
1
1
1
1
1
1
1
1
1
1
1
1
1
1
1
1
1
1
1
1
1
1
1
1
1
1
1
1
1
1
1
1
1
1
1
1
1
1
1
1
1
1
1
1
1
1
1
1
1
1
1
1
1
1
1
1
1
1
1
1
1
1
1
1
1
1
1
1
1
1
1
1
1
1
1
1
1
1
1
1
1
1
1
1
1
1
1
1
0.99999
0.99999
0.99998
0.99997
0.99995
0.99989
0.99934
0.9896
0.73936
0.0093937
0.00018218
1.0716e-05
1.1457e-06
1.3852e-07
2.8738e-08
1.2877e-08
1.8131e-08
6.5055e-08
3.2867e-07
1.345e-06
3.7446e-06
5.3755e-06
5.3161e-06
5.4423e-06
8.79e-06
1.787e-05
4.4818e-05
7.7298e-05
0.00011345
0.00013003
8.5286e-05
4.4867e-05
1.8344e-05
1.0608e-05
9.3705e-06
1.3558e-05
1.4775e-05
1.4513e-05
1.3975e-05
1.349e-05
1.3046e-05
1.2757e-05
1.2623e-05
1.2544e-05
1.2528e-05
1.241e-05
1.2224e-05
1.1978e-05
1.1716e-05
1.1508e-05
1.136e-05
1.1253e-05
1.1211e-05
1.1141e-05
1.0906e-05
1.0481e-05
9.9482e-06
9.7863e-06
1.1029e-05
1.618e-05
2.2723e-05
1.2543e-05
4.7485e-06
1.339e-06
6.0166e-07
4.7765e-07
7.167e-07
7.8078e-07
7.5353e-07
7.1828e-07
6.9639e-07
6.8375e-07
6.7255e-07
6.6092e-07
6.4915e-07
6.3762e-07
6.2644e-07
6.156e-07
6.0505e-07
5.9478e-07
5.8476e-07
5.7499e-07
5.6547e-07
5.5617e-07
5.4711e-07
5.3827e-07
5.2965e-07
5.2126e-07
5.1308e-07
5.0513e-07
4.9739e-07
4.8989e-07
4.8261e-07
4.7557e-07
4.6876e-07
4.6219e-07
4.5587e-07
4.4979e-07
4.4397e-07
4.384e-07
4.331e-07
4.2805e-07
4.2327e-07
4.1876e-07
4.1451e-07
4.1053e-07
4.0682e-07
4.0337e-07
4.0018e-07
3.9726e-07
3.9458e-07
3.9215e-07
3.8996e-07
3.8801e-07
3.8627e-07
3.8475e-07
3.8343e-07
3.8229e-07
3.8133e-07
3.8054e-07
3.7989e-07
3.7937e-07
3.7898e-07
3.7868e-07
3.7848e-07
3.7835e-07
3.7828e-07
3.7826e-07
3.7827e-07
3.783e-07
3.7835e-07
3.784e-07
3.785e-07
3.7864e-07
3.7871e-07
3.7816e-07
3.765e-07
3.7606e-07
3.8246e-07
4.0035e-07
4.0847e-07
3.2636e-07
2.6007e-07
3.0505e-07
3.7492e-07
5.842e-07
1
1
1
1
1
1
1
1
1
1
1
1
1
1
1
1
1
1
1
1
1
1
1
1
1
1
1
1
1
1
1
1
1
1
1
1
1
1
1
1
1
1
1
1
1
1
1
1
1
1
1
1
1
1
1
1
1
1
1
1
1
1
1
1
1
1
1
1
1
1
1
1
1
1
1
1
1
1
1
1
1
1
1
1
1
1
1
1
1
1
1
1
1
1
1
1
1
1
1
1
1
1
1
1
1
1
1
1
1
1
1
1
1
1
1
1
1
1
1
1
1
1
1
1
1
1
1
1
1
1
1
1
1
1
1
1
1
1
1
1
1
1
1
1
1
1
1
1
1
1
1
1
1
1
1
1
1
1
1
1
1
1
1
1
1
1
1
1
1
1
1
1
1
1
1
1
1
1
1
1
1
1
1
1
1
1
1
1
1
1
1
1
1
1
1
1
1
1
1
1
1
1
1
1
1
1
1
1
1
1
1
1
1
1
1
1
1
1
1
1
1
1
1
1
1
1
1
1
1
1
1
1
1
1
1
1
1
1
1
1
1
1
1
1
1
1
1
1
1
1
1
1
1
1
1
0.99999
0.99999
0.99998
0.99997
0.99993
0.9997
0.99789
0.9807
0.83446
0.15635
0.011975
0.00089069
4.5228e-05
2.7099e-06
2.8033e-07
8.4199e-08
7.4338e-08
1.2935e-07
2.5661e-07
5.0519e-07
8.8198e-07
1.6644e-06
3.6389e-06
1.0043e-05
2.877e-05
5.513e-05
8.1084e-05
9.2892e-05
7.9674e-05
4.4253e-05
2.1502e-05
9.7881e-06
7.0599e-06
7.2957e-06
1.0035e-05
1.0741e-05
1.0483e-05
1.0042e-05
9.6862e-06
9.4221e-06
9.2705e-06
9.1987e-06
9.1615e-06
9.0656e-06
8.9281e-06
8.7654e-06
8.5805e-06
8.3991e-06
8.2702e-06
8.1734e-06
8.115e-06
8.0498e-06
7.9523e-06
7.7285e-06
7.403e-06
7.0969e-06
7.2743e-06
8.8442e-06
1.0877e-05
1.0294e-05
4.6788e-06
1.6729e-06
5.6188e-07
3.4512e-07
3.379e-07
4.7987e-07
5.1096e-07
4.9076e-07
4.682e-07
4.5436e-07
4.461e-07
4.3867e-07
4.31e-07
4.2328e-07
4.1574e-07
4.0844e-07
4.0137e-07
3.945e-07
3.878e-07
3.8128e-07
3.7492e-07
3.6872e-07
3.6267e-07
3.5677e-07
3.5102e-07
3.4541e-07
3.3993e-07
3.3461e-07
3.2942e-07
3.2438e-07
3.1948e-07
3.1473e-07
3.1012e-07
3.0567e-07
3.0137e-07
2.9723e-07
2.9324e-07
2.8942e-07
2.8576e-07
2.8227e-07
2.7894e-07
2.7579e-07
2.728e-07
2.6999e-07
2.6735e-07
2.6487e-07
2.6257e-07
2.6044e-07
2.5847e-07
2.5667e-07
2.5502e-07
2.5353e-07
2.5219e-07
2.5099e-07
2.4993e-07
2.4899e-07
2.4818e-07
2.4749e-07
2.4689e-07
2.464e-07
2.46e-07
2.4567e-07
2.4541e-07
2.4522e-07
2.4507e-07
2.4497e-07
2.4491e-07
2.4487e-07
2.4485e-07
2.4485e-07
2.4486e-07
2.449e-07
2.4498e-07
2.4502e-07
2.4464e-07
2.4354e-07
2.4327e-07
2.4758e-07
2.5955e-07
2.6484e-07
2.0979e-07
1.6621e-07
1.9719e-07
2.4211e-07
3.7492e-07
1
1
1
1
1
1
1
1
1
1
1
1
1
1
1
1
1
1
1
1
1
1
1
1
1
1
1
1
1
1
1
1
1
1
1
1
1
1
1
1
1
1
1
1
1
1
1
1
1
1
1
1
1
1
1
1
1
1
1
1
1
1
1
1
1
1
1
1
1
1
1
1
1
1
1
1
1
1
1
1
1
1
1
1
1
1
1
1
1
1
1
1
1
1
1
1
1
1
1
1
1
1
1
1
1
1
1
1
1
1
1
1
1
1
1
1
1
1
1
1
1
1
1
1
1
1
1
1
1
1
1
1
1
1
1
1
1
1
1
1
1
1
1
1
1
1
1
1
1
1
1
1
1
1
1
1
1
1
1
1
1
1
1
1
1
1
1
1
1
1
1
1
1
1
1
1
1
1
1
1
1
1
1
1
1
1
1
1
1
1
1
1
1
1
1
1
1
1
1
1
1
1
1
1
1
1
1
1
1
1
1
1
1
1
1
1
1
1
1
1
1
1
1
1
1
1
1
1
1
1
1
1
1
1
1
1
1
1
1
1
1
1
1
1
1
1
1
1
1
1
1
1
1
1
1
1
0.99999
0.99999
0.99999
0.99997
0.99993
0.99977
0.99892
0.99459
0.97715
0.91676
0.65693
0.046652
0.0015557
4.9493e-05
3.6478e-06
6.5459e-07
2.3998e-07
1.2684e-07
1.2046e-07
1.8761e-07
5.1828e-07
2.0905e-06
1.0095e-05
3.2154e-05
6.5115e-05
8.3951e-05
7.3445e-05
4.783e-05
2.3201e-05
1.0374e-05
6.7202e-06
6.0741e-06
7.0096e-06
8.9327e-06
9.3075e-06
8.9831e-06
8.5951e-06
8.3154e-06
8.1377e-06
8.0432e-06
7.9989e-06
7.9108e-06
7.7874e-06
7.6411e-06
7.4834e-06
7.3332e-06
7.1954e-06
7.0996e-06
7.0209e-06
6.9638e-06
6.8839e-06
6.759e-06
6.5213e-06
6.2385e-06
6.1172e-06
6.6748e-06
8.9862e-06
9.0703e-06
6.0956e-06
2.2921e-06
6.9583e-07
3.1006e-07
2.6649e-07
3.0746e-07
4.0228e-07
4.1525e-07
3.971e-07
3.7996e-07
3.6952e-07
3.6292e-07
3.5684e-07
3.5059e-07
3.4435e-07
3.3827e-07
3.324e-07
3.2671e-07
3.2119e-07
3.1581e-07
3.1058e-07
3.0548e-07
3.005e-07
2.9565e-07
2.9091e-07
2.8629e-07
2.8179e-07
2.7739e-07
2.7311e-07
2.6893e-07
2.6487e-07
2.6093e-07
2.571e-07
2.5338e-07
2.4978e-07
2.463e-07
2.4295e-07
2.3972e-07
2.3661e-07
2.3363e-07
2.3079e-07
2.2807e-07
2.2549e-07
2.2305e-07
2.2073e-07
2.1856e-07
2.1652e-07
2.1461e-07
2.1283e-07
2.1119e-07
2.0967e-07
2.0828e-07
2.0702e-07
2.0587e-07
2.0483e-07
2.039e-07
2.0308e-07
2.0236e-07
2.0172e-07
2.0117e-07
2.007e-07
2.0031e-07
1.9997e-07
1.997e-07
1.9948e-07
1.993e-07
1.9917e-07
1.9907e-07
1.9899e-07
1.9894e-07
1.989e-07
1.9888e-07
1.9889e-07
1.9894e-07
1.9895e-07
1.9864e-07
1.9773e-07
1.9751e-07
2.0108e-07
2.1096e-07
2.1532e-07
1.6994e-07
1.3402e-07
1.5986e-07
1.9719e-07
3.0505e-07
1
1
1
1
1
1
1
1
1
1
1
1
1
1
1
1
1
1
1
1
1
1
1
1
1
1
1
1
1
1
1
1
1
1
1
1
1
1
1
1
1
1
1
1
1
1
1
1
1
1
1
1
1
1
1
1
1
1
1
1
1
1
1
1
1
1
1
1
1
1
1
1
1
1
1
1
1
1
1
1
1
1
1
1
1
1
1
1
1
1
1
1
1
1
1
1
1
1
1
1
1
1
1
1
1
1
1
1
1
1
1
1
1
1
1
1
1
1
1
1
1
1
1
1
1
1
1
1
1
1
1
1
1
1
1
1
1
1
1
1
1
1
1
1
1
1
1
1
1
1
1
1
1
1
1
1
1
1
1
1
1
1
1
1
1
1
1
1
1
1
1
1
1
1
1
1
1
1
1
1
1
1
1
1
1
1
1
1
1
1
1
1
1
1
1
1
1
1
1
1
1
1
1
1
1
1
1
1
1
1
1
1
1
1
1
1
1
1
1
1
1
1
1
1
1
1
1
1
1
1
1
1
1
1
1
1
1
1
1
1
1
1
1
1
1
1
1
1
1
1
1
1
1
1
1
1
1
1
0.99999
0.99999
0.99999
0.99999
0.99998
0.99995
0.99989
0.9997
0.99884
0.99166
0.90246
0.083395
0.001249
3.4863e-05
2.0754e-06
2.5104e-07
8.0661e-08
6.8125e-08
1.707e-07
9.5318e-07
5.4787e-06
2.3159e-05
5.2388e-05
6.0234e-05
4.2673e-05
2.2116e-05
9.6771e-06
6.0459e-06
5.278e-06
5.8954e-06
7.2948e-06
8.3225e-06
8.2976e-06
7.9065e-06
7.5659e-06
7.349e-06
7.2409e-06
7.2023e-06
7.1419e-06
7.0235e-06
6.8797e-06
6.721e-06
6.5767e-06
6.4615e-06
6.3594e-06
6.2895e-06
6.2299e-06
6.1528e-06
6.0572e-06
5.8987e-06
5.6391e-06
5.3996e-06
5.5078e-06
6.6278e-06
8.2599e-06
5.8469e-06
2.5461e-06
7.3352e-07
2.8937e-07
1.8816e-07
2.3036e-07
3.0252e-07
3.5171e-07
3.4812e-07
3.3154e-07
3.1886e-07
3.1112e-07
3.0571e-07
3.0053e-07
2.9525e-07
2.9002e-07
2.8495e-07
2.8006e-07
2.7533e-07
2.7074e-07
2.6628e-07
2.6194e-07
2.5771e-07
2.5359e-07
2.4957e-07
2.4564e-07
2.4181e-07
2.3808e-07
2.3443e-07
2.3087e-07
2.2741e-07
2.2403e-07
2.2075e-07
2.1756e-07
2.1446e-07
2.1145e-07
2.0854e-07
2.0573e-07
2.0302e-07
2.0041e-07
1.979e-07
1.9549e-07
1.932e-07
1.9101e-07
1.8892e-07
1.8695e-07
1.8508e-07
1.8332e-07
1.8168e-07
1.8013e-07
1.787e-07
1.7736e-07
1.7613e-07
1.75e-07
1.7396e-07
1.7302e-07
1.7217e-07
1.714e-07
1.7071e-07
1.7009e-07
1.6955e-07
1.6907e-07
1.6866e-07
1.683e-07
1.68e-07
1.6774e-07
1.6752e-07
1.6734e-07
1.6719e-07
1.6707e-07
1.6698e-07
1.669e-07
1.6685e-07
1.6683e-07
1.6685e-07
1.6684e-07
1.6657e-07
1.6579e-07
1.6561e-07
1.6866e-07
1.7707e-07
1.8074e-07
1.4213e-07
1.1169e-07
1.3402e-07
1.6621e-07
2.6007e-07
1
1
1
1
1
1
1
1
1
1
1
1
1
1
1
1
1
1
1
1
1
1
1
1
1
1
1
1
1
1
1
1
1
1
1
1
1
1
1
1
1
1
1
1
1
1
1
1
1
1
1
1
1
1
1
1
1
1
1
1
1
1
1
1
1
1
1
1
1
1
1
1
1
1
1
1
1
1
1
1
1
1
1
1
1
1
1
1
1
1
1
1
1
1
1
1
1
1
1
1
1
1
1
1
1
1
1
1
1
1
1
1
1
1
1
1
1
1
1
1
1
1
1
1
1
1
1
1
1
1
1
1
1
1
1
1
1
1
1
1
1
1
1
1
1
1
1
1
1
1
1
1
1
1
1
1
1
1
1
1
1
1
1
1
1
1
1
1
1
1
1
1
1
1
1
1
1
1
1
1
1
1
1
1
1
1
1
1
1
1
1
1
1
1
1
1
1
1
1
1
1
1
1
1
1
1
1
1
1
1
1
1
1
1
1
1
1
1
1
1
1
1
1
1
1
1
1
1
1
1
1
1
1
1
1
1
1
1
1
1
1
1
1
1
1
1
1
1
1
1
1
1
1
1
1
1
1
1
1
1
1
1
1
1
1
0.99999
0.99999
0.99995
0.9996
0.99391
0.90423
0.08635
0.0011744
2.9549e-05
1.7292e-06
2.8759e-07
2.6222e-07
6.4368e-07
2.4346e-06
7.7721e-06
1.5736e-05
1.8591e-05
1.5071e-05
8.4897e-06
6.0976e-06
5.7376e-06
6.6815e-06
8.5978e-06
1.0381e-05
1.062e-05
1.0161e-05
9.5717e-06
9.1736e-06
8.9517e-06
8.8732e-06
8.7966e-06
8.6924e-06
8.4969e-06
8.2942e-06
8.1137e-06
7.9764e-06
7.8626e-06
7.7626e-06
7.6795e-06
7.5729e-06
7.458e-06
7.3257e-06
7.0954e-06
6.7514e-06
6.5051e-06
6.9691e-06
9.3132e-06
9.4007e-06
4.6796e-06
1.5051e-06
4.2793e-07
2.0631e-07
2.0982e-07
3.3344e-07
4.4175e-07
4.5738e-07
4.3618e-07
4.1501e-07
4.0167e-07
3.9329e-07
3.8663e-07
3.8004e-07
3.7341e-07
3.6689e-07
3.606e-07
3.5452e-07
3.4864e-07
3.4294e-07
3.374e-07
3.3202e-07
3.2678e-07
3.2167e-07
3.1669e-07
3.1183e-07
3.0709e-07
3.0246e-07
2.9795e-07
2.9354e-07
2.8924e-07
2.8505e-07
2.8097e-07
2.7701e-07
2.7315e-07
2.694e-07
2.6577e-07
2.6226e-07
2.5887e-07
2.556e-07
2.5245e-07
2.4942e-07
2.4652e-07
2.4375e-07
2.4111e-07
2.386e-07
2.3622e-07
2.3397e-07
2.3184e-07
2.2985e-07
2.2798e-07
2.2624e-07
2.2462e-07
2.2312e-07
2.2174e-07
2.2047e-07
2.193e-07
2.1824e-07
2.1728e-07
2.1642e-07
2.1564e-07
2.1494e-07
2.1432e-07
2.1377e-07
2.1329e-07
2.1288e-07
2.1252e-07
2.1221e-07
2.1194e-07
2.1172e-07
2.1154e-07
2.1139e-07
2.1127e-07
2.1121e-07
2.112e-07
2.1117e-07
2.108e-07
2.0982e-07
2.0958e-07
2.1339e-07
2.2388e-07
2.2847e-07
1.8032e-07
1.4213e-07
1.6994e-07
2.0979e-07
3.2636e-07
1
1
1
1
1
1
1
1
1
1
1
1
1
1
1
1
1
1
1
1
1
1
1
1
1
1
1
1
1
1
1
1
1
1
1
1
1
1
1
1
1
1
1
1
1
1
1
1
1
1
1
1
1
1
1
1
1
1
1
1
1
1
1
1
1
1
1
1
1
1
1
1
1
1
1
1
1
1
1
1
1
1
1
1
1
1
1
1
1
1
1
1
1
1
1
1
1
1
1
1
1
1
1
1
1
1
1
1
1
1
1
1
1
1
1
1
1
1
1
1
1
1
1
1
1
1
1
1
1
1
1
1
1
1
1
1
1
1
1
1
1
1
1
1
1
1
1
1
1
1
1
1
1
1
1
1
1
1
1
1
1
1
1
1
1
1
1
1
1
1
1
1
1
1
1
1
1
1
1
1
1
1
1
1
1
1
1
1
1
1
1
1
1
1
1
1
1
1
1
1
1
1
1
1
1
1
1
1
1
1
1
1
1
1
1
1
1
1
1
1
1
1
1
1
1
1
1
1
1
1
1
1
1
1
1
1
1
1
1
1
1
1
1
1
1
1
1
1
1
1
1
1
1
1
1
1
1
1
1
1
1
1
1
1
1
1
1
1
0.99999
0.99996
0.99958
0.99424
0.89589
0.06616
0.0009155
2.6878e-05
3.6452e-06
1.6414e-06
1.6842e-06
1.8703e-06
2.117e-06
2.171e-06
2.1181e-06
2.4966e-06
3.8585e-06
6.5326e-06
1.0154e-05
1.3334e-05
1.3982e-05
1.341e-05
1.2545e-05
1.1751e-05
1.1284e-05
1.1032e-05
1.0902e-05
1.0757e-05
1.0587e-05
1.0297e-05
1.0034e-05
9.8502e-06
9.7115e-06
9.6005e-06
9.5107e-06
9.3925e-06
9.2353e-06
9.0849e-06
8.9181e-06
8.6098e-06
8.1713e-06
7.9426e-06
8.8833e-06
1.2942e-05
9.7336e-06
3.639e-06
9.6002e-07
3.5999e-07
2.234e-07
3.4475e-07
5.5936e-07
6.2383e-07
5.9574e-07
5.5481e-07
5.2792e-07
5.1268e-07
5.024e-07
4.9347e-07
4.8472e-07
4.7614e-07
4.6784e-07
4.5984e-07
4.521e-07
4.446e-07
4.3733e-07
4.3026e-07
4.2339e-07
4.167e-07
4.102e-07
4.0386e-07
3.9768e-07
3.9166e-07
3.8578e-07
3.8004e-07
3.7445e-07
3.6899e-07
3.6368e-07
3.585e-07
3.5346e-07
3.4856e-07
3.438e-07
3.3918e-07
3.3471e-07
3.3038e-07
3.2621e-07
3.2218e-07
3.1832e-07
3.146e-07
3.1104e-07
3.0765e-07
3.0441e-07
3.0133e-07
2.9841e-07
2.9565e-07
2.9305e-07
2.906e-07
2.8831e-07
2.8616e-07
2.8417e-07
2.8232e-07
2.806e-07
2.7902e-07
2.7757e-07
2.7624e-07
2.7503e-07
2.7393e-07
2.7293e-07
2.7204e-07
2.7123e-07
2.7052e-07
2.6988e-07
2.6932e-07
2.6884e-07
2.6841e-07
2.6805e-07
2.6774e-07
2.6748e-07
2.6727e-07
2.6714e-07
2.6708e-07
2.67e-07
2.6652e-07
2.6526e-07
2.6495e-07
2.6968e-07
2.8272e-07
2.8845e-07
2.2847e-07
1.8074e-07
2.1532e-07
2.6484e-07
4.0847e-07
1
1
1
1
1
1
1
1
1
1
1
1
1
1
1
1
1
1
1
1
1
1
1
1
1
1
1
1
1
1
1
1
1
1
1
1
1
1
1
1
1
1
1
1
1
1
1
1
1
1
1
1
1
1
1
1
1
1
1
1
1
1
1
1
1
1
1
1
1
1
1
1
1
1
1
1
1
1
1
1
1
1
1
1
1
1
1
1
1
1
1
1
1
1
1
1
1
1
1
1
1
1
1
1
1
1
1
1
1
1
1
1
1
1
1
1
1
1
1
1
1
1
1
1
1
1
1
1
1
1
1
1
1
1
1
1
1
1
1
1
1
1
1
1
1
1
1
1
1
1
1
1
1
1
1
1
1
1
1
1
1
1
1
1
1
1
1
1
1
1
1
1
1
1
1
1
1
1
1
1
1
1
1
1
1
1
1
1
1
1
1
1
1
1
1
1
1
1
1
1
1
1
1
1
1
1
1
1
1
1
1
1
1
1
1
1
1
1
1
1
1
1
1
1
1
1
1
1
1
1
1
1
1
1
1
1
1
1
1
1
1
1
1
1
1
1
1
1
1
1
1
1
1
1
1
1
1
1
1
1
1
1
1
1
1
1
1
1
1
1
0.99999
0.99994
0.99938
0.99014
0.83877
0.032839
0.00080329
4.2317e-05
5.4179e-06
1.0602e-06
3.8759e-07
1.8627e-07
2.0595e-07
4.114e-07
1.235e-06
3.7823e-06
8.0735e-06
1.1779e-05
1.3289e-05
1.3358e-05
1.2798e-05
1.2129e-05
1.168e-05
1.134e-05
1.111e-05
1.0895e-05
1.0685e-05
1.0374e-05
1.0122e-05
9.9428e-06
9.812e-06
9.7215e-06
9.6048e-06
9.4608e-06
9.2865e-06
9.1412e-06
8.9899e-06
8.6812e-06
8.2349e-06
8.0641e-06
9.2407e-06
1.4055e-05
7.7867e-06
2.6516e-06
6.8992e-07
2.9205e-07
2.1091e-07
4.2919e-07
6.2246e-07
6.5198e-07
6.0867e-07
5.6491e-07
5.3792e-07
5.2139e-07
5.0892e-07
4.979e-07
4.8778e-07
4.7843e-07
4.6971e-07
4.6143e-07
4.5346e-07
4.4574e-07
4.3823e-07
4.3092e-07
4.2382e-07
4.1692e-07
4.102e-07
4.0367e-07
3.9731e-07
3.9111e-07
3.8507e-07
3.7919e-07
3.7346e-07
3.6787e-07
3.6243e-07
3.5713e-07
3.5198e-07
3.4697e-07
3.421e-07
3.3739e-07
3.3282e-07
3.284e-07
3.2413e-07
3.2002e-07
3.1606e-07
3.1226e-07
3.0861e-07
3.0513e-07
3.018e-07
2.9863e-07
2.9562e-07
2.9277e-07
2.9008e-07
2.8754e-07
2.8515e-07
2.8291e-07
2.8081e-07
2.7886e-07
2.7705e-07
2.7537e-07
2.7381e-07
2.7238e-07
2.7107e-07
2.6987e-07
2.6877e-07
2.6778e-07
2.6688e-07
2.6607e-07
2.6534e-07
2.647e-07
2.6412e-07
2.6362e-07
2.6318e-07
2.6281e-07
2.6248e-07
2.6222e-07
2.6203e-07
2.6192e-07
2.618e-07
2.6129e-07
2.6002e-07
2.5969e-07
2.6431e-07
2.771e-07
2.8272e-07
2.2388e-07
1.7707e-07
2.1096e-07
2.5955e-07
4.0035e-07
1
1
1
1
1
1
1
1
1
1
1
1
1
1
1
1
1
1
1
1
1
1
1
1
1
1
1
1
1
1
1
1
1
1
1
1
1
1
1
1
1
1
1
1
1
1
1
1
1
1
1
1
1
1
1
1
1
1
1
1
1
1
1
1
1
1
1
1
1
1
1
1
1
1
1
1
1
1
1
1
1
1
1
1
1
1
1
1
1
1
1
1
1
1
1
1
1
1
1
1
1
1
1
1
1
1
1
1
1
1
1
1
1
1
1
1
1
1
1
1
1
1
1
1
1
1
1
1
1
1
1
1
1
1
1
1
1
1
1
1
1
1
1
1
1
1
1
1
1
1
1
1
1
1
1
1
1
1
1
1
1
1
1
1
1
1
1
1
1
1
1
1
1
1
1
1
1
1
1
1
1
1
1
1
1
1
1
1
1
1
1
1
1
1
1
1
1
1
1
1
1
1
1
1
1
1
1
1
1
1
1
1
1
1
1
1
1
1
1
1
1
1
1
1
1
1
1
1
1
1
1
1
1
1
1
1
1
1
1
1
1
1
1
1
1
1
1
1
1
1
1
1
1
1
1
1
1
1
1
1
1
1
1
1
1
1
1
1
1
1
1
1
0.99998
0.99984
0.99862
0.97774
0.67199
0.01522
0.00033896
9.5102e-06
5.7937e-07
9.1531e-08
4.9492e-08
8.3704e-08
2.6078e-07
9.4887e-07
2.4558e-06
5.195e-06
8.1972e-06
1.0599e-05
1.1749e-05
1.1985e-05
1.1824e-05
1.1504e-05
1.1201e-05
1.0902e-05
1.0628e-05
1.0317e-05
1.0071e-05
9.8932e-06
9.7614e-06
9.6458e-06
9.499e-06
9.3402e-06
9.1721e-06
9.051e-06
8.9275e-06
8.6318e-06
8.2016e-06
8.0556e-06
9.2071e-06
1.3878e-05
7.562e-06
2.5046e-06
6.2689e-07
2.5556e-07
1.803e-07
3.6733e-07
5.4974e-07
6.0265e-07
5.8678e-07
5.596e-07
5.3888e-07
5.2208e-07
5.0667e-07
4.9238e-07
4.7976e-07
4.6881e-07
4.5923e-07
4.5055e-07
4.4244e-07
4.3468e-07
4.2718e-07
4.1988e-07
4.1278e-07
4.0587e-07
3.9915e-07
3.9261e-07
3.8625e-07
3.8006e-07
3.7404e-07
3.6817e-07
3.6246e-07
3.5691e-07
3.515e-07
3.4624e-07
3.4112e-07
3.3615e-07
3.3133e-07
3.2665e-07
3.2212e-07
3.1773e-07
3.135e-07
3.0942e-07
3.0549e-07
3.0171e-07
2.9808e-07
2.9461e-07
2.9129e-07
2.8813e-07
2.8511e-07
2.8226e-07
2.7955e-07
2.7699e-07
2.7457e-07
2.723e-07
2.7017e-07
2.6818e-07
2.6631e-07
2.6458e-07
2.6297e-07
2.6148e-07
2.601e-07
2.5883e-07
2.5766e-07
2.566e-07
2.5563e-07
2.5474e-07
2.5395e-07
2.5323e-07
2.5259e-07
2.5202e-07
2.5152e-07
2.5108e-07
2.507e-07
2.5038e-07
2.5014e-07
2.4999e-07
2.4983e-07
2.4929e-07
2.4805e-07
2.477e-07
2.521e-07
2.6431e-07
2.6968e-07
2.1339e-07
1.6866e-07
2.0108e-07
2.4758e-07
3.8246e-07
1
1
1
1
1
1
1
1
1
1
1
1
1
1
1
1
1
1
1
1
1
1
1
1
1
1
1
1
1
1
1
1
1
1
1
1
1
1
1
1
1
1
1
1
1
1
1
1
1
1
1
1
1
1
1
1
1
1
1
1
1
1
1
1
1
1
1
1
1
1
1
1
1
1
1
1
1
1
1
1
1
1
1
1
1
1
1
1
1
1
1
1
1
1
1
1
1
1
1
1
1
1
1
1
1
1
1
1
1
1
1
1
1
1
1
1
1
1
1
1
1
1
1
1
1
1
1
1
1
1
1
1
1
1
1
1
1
1
1
1
1
1
1
1
1
1
1
1
1
1
1
1
1
1
1
1
1
1
1
1
1
1
1
1
1
1
1
1
1
1
1
1
1
1
1
1
1
1
1
1
1
1
1
1
1
1
1
1
1
1
1
1
1
1
1
1
1
1
1
1
1
1
1
1
1
1
1
1
1
1
1
1
1
1
1
1
1
1
1
1
1
1
1
1
1
1
1
1
1
1
1
1
1
1
1
1
1
1
1
1
1
1
1
1
1
1
1
1
1
1
1
1
1
1
1
1
1
1
1
1
1
1
1
1
1
1
1
1
1
1
1
1
1
0.99999
0.99994
0.99964
0.9971
0.96637
0.46303
0.0036595
3.318e-05
9.3679e-07
1.1343e-07
6.8932e-08
8.7586e-08
1.8473e-07
4.1161e-07
1.0887e-06
2.5525e-06
5.0202e-06
7.8102e-06
1.0054e-05
1.1251e-05
1.1575e-05
1.1481e-05
1.1205e-05
1.0913e-05
1.0592e-05
1.0332e-05
1.0125e-05
9.9691e-06
9.7943e-06
9.6224e-06
9.4578e-06
9.3116e-06
9.2163e-06
9.1027e-06
8.8241e-06
8.4145e-06
8.2459e-06
9.1845e-06
1.3053e-05
9.3571e-06
4.0583e-06
1.088e-06
3.7691e-07
2.0039e-07
2.6199e-07
3.6332e-07
4.6771e-07
5.1723e-07
5.3653e-07
5.4139e-07
5.3529e-07
5.2206e-07
5.0576e-07
4.8986e-07
4.7571e-07
4.6365e-07
4.533e-07
4.4419e-07
4.359e-07
4.2811e-07
4.2065e-07
4.1342e-07
4.0638e-07
3.9952e-07
3.9285e-07
3.8635e-07
3.8003e-07
3.7388e-07
3.6791e-07
3.6209e-07
3.5643e-07
3.5093e-07
3.4558e-07
3.4039e-07
3.3534e-07
3.3044e-07
3.2569e-07
3.2109e-07
3.1664e-07
3.1234e-07
3.0819e-07
3.0419e-07
3.0034e-07
2.9664e-07
2.931e-07
2.8971e-07
2.8647e-07
2.8338e-07
2.8044e-07
2.7764e-07
2.75e-07
2.7249e-07
2.7013e-07
2.6791e-07
2.6581e-07
2.6385e-07
2.6202e-07
2.6031e-07
2.5871e-07
2.5723e-07
2.5585e-07
2.5459e-07
2.5342e-07
2.5234e-07
2.5136e-07
2.5047e-07
2.4966e-07
2.4893e-07
2.4827e-07
2.4769e-07
2.4717e-07
2.4672e-07
2.4633e-07
2.4603e-07
2.4583e-07
2.4562e-07
2.4505e-07
2.4378e-07
2.4341e-07
2.477e-07
2.5969e-07
2.6495e-07
2.0958e-07
1.6561e-07
1.9751e-07
2.4327e-07
3.7607e-07
1
1
1
1
1
1
1
1
1
1
1
1
1
1
1
1
1
1
1
1
1
1
1
1
1
1
1
1
1
1
1
1
1
1
1
1
1
1
1
1
1
1
1
1
1
1
1
1
1
1
1
1
1
1
1
1
1
1
1
1
1
1
1
1
1
1
1
1
1
1
1
1
1
1
1
1
1
1
1
1
1
1
1
1
1
1
1
1
1
1
1
1
1
1
1
1
1
1
1
1
1
1
1
1
1
1
1
1
1
1
1
1
1
1
1
1
1
1
1
1
1
1
1
1
1
1
1
1
1
1
1
1
1
1
1
1
1
1
1
1
1
1
1
1
1
1
1
1
1
1
1
1
1
1
1
1
1
1
1
1
1
1
1
1
1
1
1
1
1
1
1
1
1
1
1
1
1
1
1
1
1
1
1
1
1
1
1
1
1
1
1
1
1
1
1
1
1
1
1
1
1
1
1
1
1
1
1
1
1
1
1
1
1
1
1
1
1
1
1
1
1
1
1
1
1
1
1
1
1
1
1
1
1
1
1
1
1
1
1
1
1
1
1
1
1
1
1
1
1
1
1
1
1
1
1
1
1
1
1
1
1
1
1
1
1
1
1
1
1
1
1
1
0.99999
0.99999
0.99999
0.99998
0.99994
0.99973
0.99718
0.94162
0.064743
0.00047985
9.8808e-06
9.6069e-07
1.8981e-07
1.0717e-07
9.951e-08
1.7565e-07
4.0674e-07
1.0513e-06
2.5338e-06
5.0343e-06
7.8706e-06
9.9633e-06
1.1065e-05
1.1337e-05
1.1243e-05
1.0999e-05
1.0755e-05
1.0525e-05
1.0309e-05
1.008e-05
9.8879e-06
9.7152e-06
9.5834e-06
9.4937e-06
9.3887e-06
9.1509e-06
8.7871e-06
8.5753e-06
9.174e-06
1.1872e-05
1.1113e-05
6.9407e-06
2.7471e-06
9.518e-07
3.9883e-07
2.9597e-07
2.8297e-07
3.2057e-07
3.5292e-07
4.3427e-07
4.93e-07
5.2491e-07
5.339e-07
5.2723e-07
5.1327e-07
4.9703e-07
4.816e-07
4.6795e-07
4.5631e-07
4.4631e-07
4.3752e-07
4.295e-07
4.2194e-07
4.1467e-07
4.076e-07
4.007e-07
3.9397e-07
3.8741e-07
3.8103e-07
3.7483e-07
3.6879e-07
3.6293e-07
3.5723e-07
3.5169e-07
3.4631e-07
3.4109e-07
3.3602e-07
3.3111e-07
3.2635e-07
3.2174e-07
3.1729e-07
3.1299e-07
3.0885e-07
3.0485e-07
3.0102e-07
2.9733e-07
2.938e-07
2.9042e-07
2.8719e-07
2.8411e-07
2.8118e-07
2.7839e-07
2.7575e-07
2.7325e-07
2.7088e-07
2.6865e-07
2.6655e-07
2.6458e-07
2.6273e-07
2.6099e-07
2.5937e-07
2.5787e-07
2.5647e-07
2.5517e-07
2.5397e-07
2.5286e-07
2.5185e-07
2.5093e-07
2.5009e-07
2.4933e-07
2.4865e-07
2.4804e-07
2.4751e-07
2.4704e-07
2.4667e-07
2.464e-07
2.4613e-07
2.4551e-07
2.442e-07
2.4378e-07
2.4805e-07
2.6003e-07
2.6526e-07
2.0982e-07
1.6578e-07
1.9773e-07
2.4354e-07
3.765e-07
1
1
1
1
1
1
1
1
1
1
1
1
1
1
1
1
1
1
1
1
1
1
1
1
1
1
1
1
1
1
1
1
1
1
1
1
1
1
1
1
1
1
1
1
1
1
1
1
1
1
1
1
1
1
1
1
1
1
1
1
1
1
1
1
1
1
1
1
1
1
1
1
1
1
1
1
1
1
1
1
1
1
1
1
1
1
1
1
1
1
1
1
1
1
1
1
1
1
1
1
1
1
1
1
1
1
1
1
1
1
1
1
1
1
1
1
1
1
1
1
1
1
1
1
1
1
1
1
1
1
1
1
1
1
1
1
1
1
1
1
1
1
1
1
1
1
1
1
1
1
1
1
1
1
1
1
1
1
1
1
1
1
1
1
1
1
1
1
1
1
1
1
1
1
1
1
1
1
1
1
1
1
1
1
1
1
1
1
1
1
1
1
1
1
1
1
1
1
1
1
1
1
1
1
1
1
1
1
1
1
1
1
1
1
1
1
1
1
1
1
1
1
1
1
1
1
1
1
1
1
1
1
1
1
1
1
1
1
1
1
1
1
0.99999
0.99999
0.99999
0.99999
0.99999
0.99999
0.99999
0.99999
0.99999
0.99999
0.99999
0.99999
0.99999
1
1
1
1
1
1
1
1
1
1
1
1
1
1
0.99999
0.99999
0.99999
0.99999
0.99999
0.99999
1
1
0.99999
0.99997
0.99966
0.99199
0.82708
0.022095
0.0003904
1.0541e-05
8.0669e-07
1.4082e-07
7.256e-08
7.8298e-08
1.4924e-07
3.948e-07
1.1115e-06
2.7498e-06
5.2614e-06
7.9779e-06
9.8893e-06
1.0901e-05
1.121e-05
1.117e-05
1.0971e-05
1.0715e-05
1.0432e-05
1.0198e-05
9.9729e-06
9.8235e-06
9.7313e-06
9.6454e-06
9.4711e-06
9.1729e-06
8.9038e-06
9.1304e-06
1.0663e-05
1.2098e-05
1.0693e-05
6.2085e-06
3.2019e-06
1.2084e-06
6.7714e-07
4.3361e-07
3.4771e-07
2.8118e-07
3.0602e-07
3.4202e-07
4.2797e-07
4.8806e-07
5.1857e-07
5.2632e-07
5.1928e-07
5.0551e-07
4.8971e-07
4.7484e-07
4.6183e-07
4.5082e-07
4.4138e-07
4.3302e-07
4.253e-07
4.1793e-07
4.1078e-07
4.038e-07
3.9698e-07
3.9032e-07
3.8384e-07
3.7754e-07
3.7141e-07
3.6546e-07
3.5968e-07
3.5407e-07
3.4862e-07
3.4334e-07
3.3822e-07
3.3325e-07
3.2845e-07
3.2381e-07
3.1932e-07
3.1499e-07
3.1082e-07
3.0681e-07
3.0295e-07
2.9925e-07
2.957e-07
2.923e-07
2.8906e-07
2.8596e-07
2.8301e-07
2.8021e-07
2.7754e-07
2.7502e-07
2.7263e-07
2.7037e-07
2.6824e-07
2.6623e-07
2.6435e-07
2.6258e-07
2.6092e-07
2.5938e-07
2.5794e-07
2.566e-07
2.5537e-07
2.5423e-07
2.5318e-07
2.5222e-07
2.5136e-07
2.5057e-07
2.4987e-07
2.4924e-07
2.4869e-07
2.4824e-07
2.479e-07
2.4756e-07
2.4688e-07
2.4551e-07
2.4505e-07
2.493e-07
2.6129e-07
2.6652e-07
2.108e-07
1.6657e-07
1.9864e-07
2.4464e-07
3.7816e-07
1
1
1
1
1
1
1
1
1
1
1
1
1
1
1
1
1
1
1
1
1
1
1
1
1
1
1
1
1
1
1
1
1
1
1
1
1
1
1
1
1
1
1
1
1
1
1
1
1
1
1
1
1
1
1
1
1
1
1
1
1
1
1
1
1
1
1
1
1
1
1
1
1
1
1
1
1
1
1
1
1
1
1
1
1
1
1
1
1
1
1
1
1
1
1
1
1
1
1
1
1
1
1
1
1
1
1
1
1
1
1
1
1
1
1
1
1
1
1
1
1
1
1
1
1
1
1
1
1
1
1
1
1
1
1
1
1
1
1
1
1
1
1
1
1
1
1
1
1
1
1
1
1
1
1
1
1
1
1
1
1
1
1
1
1
1
1
1
1
1
1
1
1
1
1
1
1
1
1
1
1
1
1
1
1
1
1
1
1
1
1
1
1
1
1
1
1
1
1
1
1
1
1
1
1
1
1
1
1
1
1
1
1
1
1
1
1
1
1
1
1
1
1
1
1
1
1
1
1
1
1
1
1
1
1
1
1
1
1
0.99999
0.99999
0.99999
0.99999
0.99999
0.99999
0.99999
0.99999
0.99999
0.99999
0.99999
0.99999
0.99999
0.99999
0.99999
0.99999
0.99999
0.99999
0.99999
0.99999
0.99999
0.99999
0.99999
1
1
1
1
1
0.99999
0.99999
0.99999
0.99998
0.99998
0.99999
0.99999
0.99999
1
1
1
1
0.99999
0.99992
0.99916
0.98581
0.76859
0.014784
0.00019348
4.4143e-06
3.0503e-07
6.8674e-08
4.5735e-08
6.9437e-08
1.6726e-07
4.8704e-07
1.2909e-06
3.0564e-06
5.5794e-06
8.1854e-06
9.9657e-06
1.0852e-05
1.1118e-05
1.0989e-05
1.0756e-05
1.0536e-05
1.0271e-05
1.0079e-05
9.9441e-06
9.8181e-06
9.657e-06
9.4232e-06
9.1491e-06
9.1083e-06
9.773e-06
1.1941e-05
1.3685e-05
1.1373e-05
8.5651e-06
4.5088e-06
2.4644e-06
1.1357e-06
7.5233e-07
4.3289e-07
3.3657e-07
2.744e-07
3.0178e-07
3.3809e-07
4.2178e-07
4.798e-07
5.093e-07
5.1689e-07
5.1017e-07
4.9693e-07
4.8177e-07
4.6762e-07
4.5535e-07
4.4502e-07
4.361e-07
4.2808e-07
4.2054e-07
4.1328e-07
4.062e-07
3.9928e-07
3.9254e-07
3.8596e-07
3.7956e-07
3.7333e-07
3.6729e-07
3.6143e-07
3.5574e-07
3.5022e-07
3.4487e-07
3.3969e-07
3.3468e-07
3.2983e-07
3.2514e-07
3.2062e-07
3.1626e-07
3.1206e-07
3.0801e-07
3.0413e-07
3.004e-07
2.9683e-07
2.9341e-07
2.9015e-07
2.8703e-07
2.8405e-07
2.8122e-07
2.7853e-07
2.7598e-07
2.7356e-07
2.7127e-07
2.691e-07
2.6706e-07
2.6514e-07
2.6334e-07
2.6165e-07
2.6007e-07
2.5859e-07
2.5722e-07
2.5595e-07
2.5478e-07
2.5371e-07
2.5273e-07
2.5184e-07
2.5103e-07
2.5031e-07
2.4967e-07
2.4914e-07
2.4872e-07
2.4832e-07
2.4757e-07
2.4614e-07
2.4562e-07
2.4983e-07
2.6181e-07
2.6701e-07
2.1117e-07
1.6684e-07
1.9895e-07
2.4502e-07
3.7871e-07
1
1
1
1
1
1
1
1
1
1
1
1
1
1
1
1
1
1
1
1
1
1
1
1
1
1
1
1
1
1
1
1
1
1
1
1
1
1
1
1
1
1
1
1
1
1
1
1
1
1
1
1
1
1
1
1
1
1
1
1
1
1
1
1
1
1
1
1
1
1
1
1
1
1
1
1
1
1
1
1
1
1
1
1
1
1
1
1
1
1
1
1
1
1
1
1
1
1
1
1
1
1
1
1
1
1
1
1
1
1
1
1
1
1
1
1
1
1
1
1
1
1
1
1
1
1
1
1
1
1
1
1
1
1
1
1
1
1
1
1
1
1
1
1
1
1
1
1
1
1
1
1
1
1
1
1
1
1
1
1
1
1
1
1
1
1
1
1
1
1
1
1
1
1
1
1
1
1
1
1
1
1
1
1
1
1
1
1
1
1
1
1
1
1
1
1
1
1
1
1
1
1
1
1
1
1
1
1
1
1
1
1
1
1
1
1
1
1
1
1
1
1
1
1
1
1
1
1
1
1
1
1
1
1
1
1
1
1
0.99999
0.99999
0.99999
0.99999
0.99999
0.99999
0.99999
0.99999
0.99999
0.99999
0.99999
0.99999
0.99999
0.99999
0.99999
0.99999
0.99999
0.99999
0.99999
0.99999
0.99999
0.99999
0.99999
1
1
1
1
1
0.99999
0.99999
0.99998
0.99998
0.99998
0.99998
0.99999
0.99999
1
1
1
1
1
1
1
0.99998
0.99988
0.99876
0.97728
0.5265
0.0036575
4.0794e-05
1.2815e-06
1.4217e-07
5.6974e-08
5.6203e-08
1.0407e-07
2.2949e-07
6.2216e-07
1.5333e-06
3.4555e-06
5.9998e-06
8.4555e-06
1.0051e-05
1.0735e-05
1.0928e-05
1.086e-05
1.0592e-05
1.0362e-05
1.0166e-05
1.0009e-05
9.8399e-06
9.6476e-06
9.3618e-06
9.1412e-06
9.2228e-06
1.0025e-05
1.201e-05
1.2896e-05
1.3511e-05
1.0382e-05
7.5526e-06
4.1054e-06
2.572e-06
1.1237e-06
7.3185e-07
4.2405e-07
3.318e-07
2.71e-07
2.9757e-07
3.335e-07
4.1704e-07
4.7569e-07
5.0547e-07
5.1236e-07
5.0432e-07
4.8994e-07
4.7448e-07
4.6068e-07
4.4905e-07
4.3928e-07
4.307e-07
4.2281e-07
4.1535e-07
4.0815e-07
4.0114e-07
3.943e-07
3.8763e-07
3.8114e-07
3.7483e-07
3.687e-07
3.6275e-07
3.5698e-07
3.514e-07
3.4598e-07
3.4075e-07
3.3568e-07
3.3078e-07
3.2605e-07
3.2149e-07
3.1709e-07
3.1286e-07
3.0879e-07
3.0487e-07
3.0112e-07
2.9752e-07
2.9407e-07
2.9078e-07
2.8763e-07
2.8463e-07
2.8177e-07
2.7905e-07
2.7647e-07
2.7401e-07
2.7169e-07
2.6949e-07
2.6741e-07
2.6546e-07
2.6362e-07
2.6189e-07
2.6028e-07
2.5877e-07
2.5737e-07
2.5608e-07
2.5488e-07
2.5379e-07
2.5279e-07
2.5188e-07
2.5106e-07
2.5033e-07
2.4971e-07
2.4921e-07
2.4873e-07
2.4791e-07
2.4641e-07
2.4584e-07
2.5e-07
2.6193e-07
2.6709e-07
2.112e-07
1.6685e-07
1.9894e-07
2.4498e-07
3.7864e-07
1
1
1
1
1
1
1
1
1
1
1
1
1
1
1
1
1
1
1
1
1
1
1
1
1
1
1
1
1
1
1
1
1
1
1
1
1
1
1
1
1
1
1
1
1
1
1
1
1
1
1
1
1
1
1
1
1
1
1
1
1
1
1
1
1
1
1
1
1
1
1
1
1
1
1
1
1
1
1
1
1
1
1
1
1
1
1
1
1
1
1
1
1
1
1
1
1
1
1
1
1
1
1
1
1
1
1
1
1
1
1
1
1
1
1
1
1
1
1
1
1
1
1
1
1
1
1
1
1
1
1
1
1
1
1
1
1
1
1
1
1
1
1
1
1
1
1
1
1
1
1
1
1
1
1
1
1
1
1
1
1
1
1
1
1
1
1
1
1
1
1
1
1
1
1
1
1
1
1
1
1
1
1
1
1
1
1
1
1
1
1
1
1
1
1
1
1
1
1
1
1
1
1
1
1
1
1
1
1
1
1
1
1
1
1
1
1
1
1
1
1
1
1
1
1
1
1
1
1
1
1
1
1
1
1
1
0.99999
0.99999
0.99999
0.99999
0.99999
0.99999
0.99999
0.99999
0.99999
0.99998
0.99998
0.99998
0.99998
0.99998
0.99998
0.99998
0.99999
0.99999
0.99999
0.99999
0.99999
0.99999
0.99999
0.99999
0.99999
0.99999
1
1
0.99999
0.99999
0.99999
0.99998
0.99998
0.99998
0.99998
0.99999
0.99999
1
1
1
1
1
1
1
1
1
0.99999
0.99997
0.99979
0.9972
0.93789
0.091307
0.00077804
1.5872e-05
1.0797e-06
1.96e-07
9.6403e-08
8.333e-08
1.3684e-07
2.7949e-07
7.3991e-07
1.835e-06
3.8408e-06
6.3468e-06
8.6336e-06
1.0099e-05
1.0766e-05
1.0845e-05
1.071e-05
1.0483e-05
1.0271e-05
1.0059e-05
9.8847e-06
9.6255e-06
9.3683e-06
9.1461e-06
9.2334e-06
9.7765e-06
1.1098e-05
1.3589e-05
1.4445e-05
1.451e-05
1.0663e-05
7.5255e-06
4.017e-06
2.5029e-06
1.1006e-06
7.1905e-07
4.1807e-07
3.2929e-07
2.7208e-07
3.035e-07
3.4456e-07
4.3221e-07
4.8919e-07
5.1229e-07
5.1151e-07
4.9864e-07
4.8258e-07
4.6739e-07
4.544e-07
4.4337e-07
4.3381e-07
4.2531e-07
4.1749e-07
4.1009e-07
4.0297e-07
3.9605e-07
3.893e-07
3.8272e-07
3.7632e-07
3.7011e-07
3.6408e-07
3.5823e-07
3.5258e-07
3.471e-07
3.418e-07
3.3668e-07
3.3173e-07
3.2695e-07
3.2234e-07
3.1791e-07
3.1363e-07
3.0953e-07
3.0558e-07
3.0179e-07
2.9816e-07
2.9468e-07
2.9135e-07
2.8817e-07
2.8514e-07
2.8224e-07
2.7949e-07
2.7686e-07
2.7437e-07
2.7201e-07
2.6978e-07
2.6767e-07
2.6568e-07
2.638e-07
2.6204e-07
2.604e-07
2.5886e-07
2.5744e-07
2.5612e-07
2.549e-07
2.5379e-07
2.5277e-07
2.5185e-07
2.5102e-07
2.5031e-07
2.4972e-07
2.4916e-07
2.4827e-07
2.467e-07
2.4606e-07
2.5016e-07
2.6204e-07
2.6715e-07
2.1121e-07
1.6683e-07
1.9889e-07
2.449e-07
3.785e-07
1
1
1
1
1
1
1
1
1
1
1
1
1
1
1
1
1
1
1
1
1
1
1
1
1
1
1
1
1
1
1
1
1
1
1
1
1
1
1
1
1
1
1
1
1
1
1
1
1
1
1
1
1
1
1
1
1
1
1
1
1
1
1
1
1
1
1
1
1
1
1
1
1
1
1
1
1
1
1
1
1
1
1
1
1
1
1
1
1
1
1
1
1
1
1
1
1
1
1
1
1
1
1
1
1
1
1
1
1
1
1
1
1
1
1
1
1
1
1
1
1
1
1
1
1
1
1
1
1
1
1
1
1
1
1
1
1
1
1
1
1
1
1
1
1
1
1
1
1
1
1
1
1
1
1
1
1
1
1
1
1
1
1
1
1
1
1
1
1
1
1
1
1
1
1
1
1
1
1
1
1
1
1
1
1
1
1
1
1
1
1
1
1
1
1
1
1
1
1
1
1
1
1
1
1
1
1
1
1
1
1
1
1
1
1
1
1
1
1
1
1
1
1
1
1
1
1
1
1
1
1
0.99999
0.99999
0.99999
0.99999
0.99999
0.99999
0.99999
0.99999
0.99998
0.99998
0.99998
0.99998
0.99997
0.99997
0.99997
0.99997
0.99997
0.99997
0.99997
0.99997
0.99997
0.99997
0.99998
0.99998
0.99998
0.99998
0.99998
0.99999
0.99999
0.99999
0.99999
0.99999
0.99999
0.99999
0.99999
0.99998
0.99998
0.99998
0.99998
0.99999
0.99999
1
1
1
1
1
1
1
1
1
1
1
1
0.99999
0.99995
0.99949
0.99219
0.85312
0.034687
0.00056782
1.8566e-05
1.5151e-06
2.5942e-07
1.2333e-07
1.0056e-07
1.6314e-07
3.5567e-07
8.7664e-07
2.0827e-06
4.1828e-06
6.7194e-06
8.9591e-06
1.0209e-05
1.072e-05
1.076e-05
1.0636e-05
1.0408e-05
1.0195e-05
9.9201e-06
9.6535e-06
9.3455e-06
9.15e-06
9.0856e-06
9.3257e-06
1.0034e-05
1.1377e-05
1.3668e-05
1.4281e-05
1.4217e-05
1.0393e-05
7.3489e-06
3.9389e-06