/*--------------------------------*- C++ -*----------------------------------*\
| =========                 |                                                 |
| \\      /  F ield         | OpenFOAM: The Open Source CFD Toolbox           |
|  \\    /   O peration     | Version:  5.x                                   |
|   \\  /    A nd           | Web:      www.OpenFOAM.org                      |
|    \\/     M anipulation  |                                                 |
\*---------------------------------------------------------------------------*/
FoamFile
{
    version     2.0;
    format      ascii;
    class       volScalarField;
    location    "110";
    object      gamma;
}
// * * * * * * * * * * * * * * * * * * * * * * * * * * * * * * * * * * * * * //

dimensions      [0 0 0 0 0 0 0];

internalField   nonuniform List<scalar> 
86400
(
7.442e-06
9.643e-06
1.488e-05
2.948e-05
6.273e-05
0.0001081
0.0001343
0.0001668
0.0002076
0.0002153
0.00022
0.0001907
0.0001809
0.000194
0.0003746
0.0007892
0.002025
0.0027
0.003246
0.003267
0.003917
0.004718
0.006501
0.006138
0.005982
0.007757
0.008556
0.009192
0.0088
0.008561
0.008202
0.008659
0.009142
0.009515
0.01003
0.01137
0.01123
0.01026
0.008067
0.007082
0.006195
0.006356
0.005969
0.005227
0.005147
0.005709
0.007027
0.007987
0.008669
0.008278
0.008332
0.008597
0.008843
0.008899
0.008849
0.009361
0.01013
0.01058
0.01066
0.01037
0.00932
0.009182
0.008606
0.008731
0.009978
0.01199
0.01388
0.01475
0.0128
0.01165
0.0124
0.01404
0.01632
0.01497
0.01342
0.01163
0.009907
0.009829
0.01129
0.01293
0.01618
0.01813
0.01787
0.01699
0.01661
0.01531
0.01555
0.01521
0.01577
0.01639
0.01569
0.01737
0.01981
0.02512
0.02794
0.02954
0.02647
0.0254
0.02486
0.02407
0.02304
0.0237
0.02145
0.01816
0.01259
0.01163
0.01282
0.01889
0.02242
0.02456
0.02148
0.01997
0.01763
0.01432
0.01025
0.008159
0.007443
0.007336
0.006931
0.006369
0.005963
0.005637
0.005823
0.005809
0.005705
0.005653
0.005539
0.005382
0.004948
0.004162
0.003133
0.002716
0.002568
0.002645
0.002807
0.003165
0.003544
0.004148
0.002682
0.001167
0.0005832
0.000626
0.000959
0.001548
0.001428
0.0008844
0.0006273
0.0006781
0.0009412
0.00121
0.001602
0.002064
0.003047
0.003244
0.003545
0.004115
0.004187
0.004473
0.06903
0.9463
9.596e-06
1.131e-05
1.645e-05
2.746e-05
5.116e-05
7.843e-05
9.051e-05
0.0001053
0.0001168
9.142e-05
8.822e-05
9.36e-05
0.0001237
0.0002208
0.0004888
0.0009433
0.001748
0.002581
0.003766
0.005311
0.008248
0.01264
0.01722
0.01683
0.01559
0.01508
0.01279
0.01028
0.00827
0.006918
0.006474
0.007684
0.009521
0.0117
0.01392
0.01629
0.01676
0.01654
0.01469
0.01342
0.0116
0.01119
0.01064
0.009813
0.009602
0.01045
0.01148
0.01249
0.01345
0.01365
0.01454
0.0158
0.017
0.01781
0.01767
0.01607
0.01418
0.0126
0.01135
0.01082
0.01035
0.01054
0.009937
0.01022
0.01177
0.01552
0.01825
0.01974
0.01784
0.0171
0.01838
0.01887
0.01757
0.01418
0.01177
0.01128
0.01336
0.01692
0.02034
0.02204
0.02503
0.0271
0.02948
0.03065
0.03145
0.03002
0.03067
0.03017
0.03232
0.03536
0.0365
0.04008
0.04241
0.04312
0.04133
0.03902
0.03449
0.03035
0.02589
0.02406
0.02401
0.02772
0.03173
0.02813
0.01789
0.01441
0.01462
0.01839
0.02431
0.02829
0.02466
0.02418
0.02504
0.02511
0.02313
0.02123
0.0202
0.02042
0.01963
0.0176
0.01631
0.01502
0.01489
0.01481
0.01452
0.01442
0.014
0.01342
0.0118
0.009556
0.006911
0.005938
0.005585
0.006485
0.00749
0.008396
0.008872
0.009344
0.006575
0.00359
0.002696
0.002759
0.003155
0.004063
0.004277
0.003339
0.003033
0.003676
0.005251
0.005786
0.005761
0.005817
0.007019
0.008787
0.01482
0.03008
0.05879
0.1599
0.5071
0.9294
1.53e-05
1.718e-05
2.165e-05
2.884e-05
4.615e-05
6.107e-05
6.456e-05
7.155e-05
7.109e-05
5.7e-05
6.023e-05
8.474e-05
0.0001386
0.0002943
0.0006371
0.001344
0.002439
0.004246
0.005973
0.009285
0.01304
0.01994
0.02574
0.02459
0.0244
0.02656
0.02416
0.01959
0.01522
0.01158
0.01093
0.01415
0.01782
0.0204
0.02084
0.02052
0.0192
0.01889
0.01725
0.01572
0.01347
0.01302
0.01246
0.01285
0.01403
0.01639
0.01809
0.01989
0.02197
0.02009
0.01732
0.01454
0.01252
0.01166
0.01229
0.01152
0.01075
0.00989
0.009537
0.009551
0.01002
0.01083
0.0109
0.01242
0.01373
0.0156
0.01713
0.01812
0.01691
0.01653
0.01696
0.01501
0.01279
0.01169
0.01213
0.01679
0.0254
0.03419
0.03894
0.04117
0.04351
0.04578
0.04956
0.05264
0.05694
0.05547
0.05406
0.05016
0.04065
0.03072
0.02182
0.01639
0.01563
0.01888
0.02228
0.02551
0.02698
0.02273
0.01908
0.01827
0.01883
0.02186
0.02587
0.02211
0.01479
0.01316
0.01552
0.02161
0.03209
0.03577
0.03308
0.03712
0.04246
0.04499
0.04182
0.03892
0.03498
0.03399
0.03122
0.02746
0.02397
0.02279
0.0224
0.02222
0.02164
0.02132
0.02053
0.01959
0.01696
0.01397
0.01065
0.009285
0.008636
0.009995
0.0125
0.01507
0.01713
0.01882
0.01581
0.01173
0.01044
0.01051
0.01151
0.01325
0.01402
0.01176
0.01039
0.01113
0.01399
0.01427
0.01476
0.01467
0.01948
0.02983
0.06325
0.1719
0.3177
0.6839
0.863
0.976
2.768e-05
2.839e-05
3.017e-05
3.199e-05
4.038e-05
4.206e-05
3.84e-05
3.963e-05
4.074e-05
3.952e-05
5.247e-05
5.924e-05
7.494e-05
0.0001567
0.0003879
0.0007841
0.001638
0.002289
0.00188
0.002106
0.002527
0.003215
0.004843
0.005954
0.0073
0.01042
0.01277
0.01267
0.0119
0.01052
0.01047
0.01523
0.02134
0.02607
0.02574
0.02344
0.0209
0.02128
0.02065
0.02002
0.01861
0.01989
0.02269
0.02773
0.02783
0.02516
0.01958
0.01584
0.01469
0.01282
0.009987
0.008173
0.007602
0.007178
0.007803
0.007005
0.005933
0.00555
0.006539
0.008062
0.009862
0.01186
0.01312
0.01486
0.0157
0.01622
0.01576
0.01519
0.01374
0.01592
0.019
0.01746
0.01653
0.01734
0.01743
0.02622
0.03949
0.04753
0.04537
0.04664
0.0406
0.03485
0.03084
0.02636
0.02323
0.02206
0.02055
0.01918
0.01699
0.01548
0.01362
0.01143
0.0118
0.01404
0.01632
0.01852
0.02116
0.01746
0.01491
0.01468
0.01606
0.01962
0.02545
0.02352
0.01622
0.01209
0.01173
0.01524
0.02062
0.02321
0.02198
0.02348
0.02405
0.03107
0.03613
0.0442
0.04832
0.05515
0.05078
0.04585
0.03872
0.03807
0.03722
0.03691
0.03595
0.03541
0.03424
0.03357
0.03083
0.02737
0.02246
0.02066
0.02032
0.02181
0.02416
0.0252
0.02497
0.02343
0.02461
0.02514
0.02716
0.02707
0.0275
0.028
0.03118
0.03229
0.03407
0.03842
0.04896
0.04833
0.05091
0.05335
0.07346
0.1347
0.2301
0.4918
0.6833
0.9173
0.9862
0.9991
6.089e-05
5.288e-05
4.729e-05
4.236e-05
3.971e-05
3.511e-05
2.711e-05
2.678e-05
3.121e-05
3.487e-05
5.291e-05
4.415e-05
2.734e-05
4.29e-05
0.0001325
0.0003942
0.001592
0.001547
0.0007481
0.0005031
0.0005931
0.0007604
0.001291
0.001364
0.001858
0.003791
0.008647
0.01578
0.02225
0.01722
0.01191
0.01182
0.01165
0.01161
0.01143
0.01025
0.00846
0.01008
0.01356
0.01821
0.01733
0.01373
0.009216
0.007589
0.005846
0.004745
0.004053
0.004374
0.005926
0.007385
0.006598
0.004962
0.005349
0.005941
0.00689
0.005938
0.004557
0.00454
0.006114
0.009301
0.01374
0.01886
0.02379
0.02679
0.02427
0.01831
0.0149
0.01195
0.009195
0.00897
0.01039
0.009614
0.01175
0.01609
0.01821
0.02076
0.02385
0.02117
0.01776
0.01901
0.01587
0.0125
0.01079
0.009704
0.009478
0.01105
0.01175
0.01121
0.01053
0.0104
0.008875
0.008057
0.009073
0.0109
0.01466
0.01688
0.01927
0.01616
0.01495
0.01336
0.01036
0.008842
0.01078
0.01223
0.01293
0.01405
0.0148
0.0175
0.01997
0.0198
0.01624
0.01525
0.01403
0.02007
0.02189
0.02485
0.02402
0.02567
0.02109
0.02117
0.01952
0.02029
0.01989
0.01966
0.01918
0.01879
0.01829
0.01917
0.02002
0.02084
0.02064
0.02024
0.01948
0.01846
0.01844
0.0178
0.01784
0.01853
0.02158
0.02417
0.02848
0.03128
0.03395
0.03837
0.0467
0.05088
0.05226
0.0519
0.06311
0.06857
0.09419
0.152
0.2826
0.4665
0.6251
0.7879
0.9068
0.9844
0.9981
0.9999
0.0001054
8.167e-05
6.765e-05
5.623e-05
4.142e-05
3.136e-05
2.552e-05
2.594e-05
3.619e-05
5.236e-05
9.475e-05
5.459e-05
2.077e-05
1.816e-05
8.17e-05
0.0002407
0.001092
0.00092
0.0003926
0.0002189
0.0003361
0.0004594
0.0007868
0.0005517
0.0005244
0.0007629
0.00146
0.003662
0.007859
0.007092
0.004523
0.003537
0.003052
0.002999
0.003786
0.003912
0.002713
0.002621
0.00323
0.003132
0.001937
0.001197
0.0005038
0.0002708
0.0001745
9.798e-05
5.239e-05
6.152e-05
0.0001206
0.0002453
0.0003434
0.0004539
0.0007487
0.001627
0.002606
0.002297
0.001408
0.001246
0.001793
0.003825
0.007429
0.01167
0.01354
0.01537
0.01442
0.01073
0.01107
0.00966
0.007165
0.006435
0.007824
0.007359
0.009905
0.01286
0.01161
0.009233
0.007353
0.006296
0.006793
0.009982
0.01146
0.01104
0.009352
0.008791
0.009102
0.01163
0.01414
0.01493
0.01667
0.01931
0.02201
0.01928
0.01882
0.01794
0.01741
0.01802
0.0186
0.01753
0.02009
0.02029
0.01608
0.01217
0.01185
0.0126
0.01517
0.01648
0.01301
0.01355
0.01371
0.01252
0.007909
0.005653
0.004097
0.006001
0.007758
0.01019
0.01032
0.009958
0.00825
0.008519
0.007894
0.008094
0.007943
0.007813
0.007643
0.007495
0.007414
0.008285
0.009585
0.01131
0.01263
0.01374
0.01449
0.01425
0.01535
0.01509
0.01711
0.01956
0.02419
0.02677
0.03133
0.03415
0.03672
0.04084
0.04975
0.05874
0.07007
0.08585
0.1236
0.1867
0.3608
0.4491
0.6258
0.7353
0.8761
0.9557
0.9892
0.9984
0.9998
1
0.000155
0.0001024
7.412e-05
5.225e-05
4.155e-05
3.615e-05
3.753e-05
4.427e-05
7.621e-05
0.0001132
0.0001733
8.646e-05
1.877e-05
1.284e-05
4.599e-05
0.0001911
0.001422
0.002464
0.001258
0.0008005
0.001443
0.001659
0.002266
0.001128
0.0006834
0.0007046
0.001105
0.002203
0.005094
0.005063
0.00347
0.001959
0.001552
0.001683
0.002395
0.002552
0.001422
0.001053
0.001279
0.001023
0.0003883
0.0001278
2.439e-05
7.113e-06
3.831e-06
1.328e-06
6.62e-07
1.07e-06
4.087e-06
1.508e-05
3.553e-05
4.014e-05
4.498e-05
7.025e-05
7.594e-05
9.073e-05
0.0001173
0.0002298
0.0006475
0.002038
0.004175
0.007438
0.009864
0.01405
0.01464
0.009558
0.009556
0.007906
0.006043
0.004753
0.005782
0.005128
0.008149
0.0115
0.01156
0.008927
0.006989
0.006252
0.006902
0.01091
0.01549
0.01924
0.02114
0.02299
0.02519
0.0283
0.03081
0.02955
0.03522
0.0466
0.04951
0.04287
0.03661
0.0315
0.02867
0.02574
0.02024
0.01575
0.01658
0.0166
0.01581
0.01244
0.01253
0.01676
0.02607
0.02961
0.0239
0.02166
0.01835
0.01266
0.007247
0.003943
0.002533
0.00348
0.005192
0.006258
0.005867
0.004889
0.003934
0.004147
0.004041
0.00416
0.004187
0.004168
0.004146
0.004118
0.004126
0.004692
0.005733
0.007398
0.009052
0.01068
0.01191
0.01179
0.01318
0.0161
0.02112
0.02775
0.03873
0.04574
0.05508
0.06407
0.07416
0.08805
0.1214
0.179
0.2787
0.3984
0.5256
0.6265
0.7486
0.7981
0.9064
0.9534
0.9877
0.9968
0.9996
0.9999
1
1
0.0002657
0.0001356
8.118e-05
5.34e-05
4.697e-05
4.692e-05
6.902e-05
0.000101
0.0001346
0.0001113
0.0001316
5.908e-05
1.333e-05
1.425e-05
6.298e-05
0.000333
0.002783
0.007482
0.00629
0.006916
0.009497
0.009738
0.01069
0.005465
0.002815
0.001382
0.0009364
0.001113
0.002088
0.002518
0.002289
0.001865
0.001583
0.002001
0.003171
0.003779
0.002159
0.001605
0.001634
0.0006091
0.0001191
1.689e-05
2.229e-06
5.426e-07
4.818e-07
1.888e-07
9.753e-08
1.26e-07
2.335e-07
7.661e-07
2.122e-06
2.531e-06
3.524e-06
6.494e-06
6.708e-06
7.546e-06
1.447e-05
4.963e-05
0.0002267
0.00111
0.002816
0.005609
0.008573
0.01539
0.01638
0.01085
0.009192
0.007133
0.005347
0.004578
0.005297
0.005118
0.007418
0.01128
0.01391
0.01363
0.01157
0.01282
0.01586
0.02547
0.03424
0.04172
0.04947
0.06282
0.08194
0.1103
0.1259
0.1107
0.1022
0.1142
0.1174
0.1229
0.1009
0.1032
0.1071
0.09835
0.07284
0.05134
0.03833
0.03457
0.0386
0.03817
0.03738
0.03386
0.03469
0.03083
0.02524
0.0238
0.02161
0.01496
0.008123
0.003184
0.002137
0.003002
0.005176
0.006442
0.006848
0.004947
0.003928
0.004199
0.004354
0.004464
0.004594
0.004764
0.004971
0.005221
0.005568
0.006606
0.008319
0.01081
0.01372
0.01677
0.01927
0.02013
0.02337
0.03004
0.04282
0.06046
0.0887
0.1208
0.1771
0.2518
0.3453
0.4056
0.4983
0.6104
0.7334
0.8119
0.88
0.9191
0.9578
0.9733
0.9911
0.9962
0.9994
0.9999
1
1
1
1
0.0004331
0.0001598
7.88e-05
4.794e-05
4.706e-05
6.012e-05
0.0001401
0.0001539
0.000121
7.165e-05
5.097e-05
3.015e-05
1.783e-05
3.736e-05
0.0001892
0.0007842
0.002081
0.003291
0.002614
0.00271
0.005272
0.0119
0.02239
0.02338
0.01836
0.007507
0.002897
0.001649
0.001851
0.002361
0.00309
0.002779
0.002037
0.00232
0.003028
0.003508
0.002308
0.001894
0.002244
0.0004141
3.97e-05
2.866e-06
2.909e-07
9.961e-08
2.725e-07
2.153e-07
1.435e-07
1.386e-07
1.383e-07
1.817e-07
5.331e-07
8.894e-07
1.867e-06
2.531e-06
1.807e-06
1.141e-06
1.977e-06
9.539e-06
7.197e-05
0.0006239
0.002361
0.005185
0.007518
0.01222
0.01219
0.008251
0.006768
0.006255
0.004636
0.00443
0.004652
0.004538
0.005946
0.009661
0.01335
0.02278
0.03366
0.06173
0.1095
0.2042
0.2884
0.3236
0.3648
0.485
0.6448
0.7677
0.815
0.8016
0.7101
0.5951
0.4606
0.4402
0.5004
0.6746
0.796
0.8498
0.8269
0.7004
0.4059
0.1348
0.1031
0.08625
0.08459
0.06862
0.05741
0.0472
0.04819
0.03878
0.03265
0.02092
0.01157
0.005595
0.005317
0.004797
0.006065
0.006222
0.006448
0.004945
0.004553
0.004464
0.004662
0.005063
0.005572
0.006175
0.006912
0.007908
0.009413
0.01209
0.01629
0.02248
0.03236
0.04636
0.06336
0.08554
0.1248
0.1879
0.2945
0.4051
0.4827
0.5622
0.6624
0.7513
0.8232
0.8596
0.8901
0.9191
0.9516
0.97
0.984
0.9904
0.9961
0.998
0.9995
0.9998
1
1
1
1
1
1
0.0003823
0.0001406
8.199e-05
6.029e-05
7.538e-05
0.0001105
0.0001786
0.0001082
5.977e-05
3.778e-05
2.489e-05
3.049e-05
4.4e-05
0.0001433
0.0007125
0.00171
0.001498
0.0007164
0.0002942
0.0002131
0.0004902
0.002019
0.008714
0.02226
0.02736
0.01187
0.003768
0.001872
0.001667
0.002896
0.004843
0.004295
0.002475
0.002037
0.00174
0.0023
0.002895
0.003584
0.003541
0.0004232
2.72e-05
1.442e-06
1.875e-07
1.145e-07
5.967e-07
9.562e-07
6.061e-07
2.893e-07
8.411e-08
4.649e-08
1.528e-07
4.931e-07
2.177e-06
4.035e-06
1.611e-06
4.676e-07
5.834e-07
3.046e-06
4.739e-05
0.0006939
0.002605
0.005152
0.00499
0.006583
0.006171
0.005472
0.005275
0.005864
0.005659
0.007917
0.0104
0.01374
0.02062
0.04128
0.05881
0.1105
0.2539
0.6041
0.7706
0.8542
0.8662
0.8268
0.8019
0.854
0.9242
0.9676
0.9823
0.9825
0.9699
0.9493
0.9239
0.9299
0.9556
0.9771
0.9876
0.9913
0.9881
0.9722
0.9209
0.7853
0.651
0.5834
0.5333
0.3761
0.1994
0.1201
0.1132
0.07783
0.06323
0.04363
0.02574
0.01664
0.01877
0.01354
0.01539
0.0165
0.02063
0.0204
0.0226
0.0211
0.02274
0.02646
0.0313
0.03722
0.04482
0.05585
0.0734
0.1006
0.1408
0.1726
0.2166
0.2787
0.3771
0.4889
0.62
0.7111
0.7846
0.824
0.8505
0.8778
0.9122
0.9443
0.9676
0.9787
0.9859
0.9905
0.9948
0.997
0.9985
0.9991
0.9997
0.9999
1
1
1
1
1
1
1
1
0.0002096
8.769e-05
6.932e-05
8.152e-05
0.0001477
0.0002238
0.0001633
6.229e-05
2.636e-05
1.998e-05
1.991e-05
4.395e-05
0.0001333
0.0006163
0.001548
0.002156
0.0006796
9.354e-05
2.136e-05
1.549e-05
5.658e-05
0.0003726
0.003624
0.01506
0.02636
0.0147
0.007835
0.004385
0.003463
0.005053
0.006112
0.003412
0.001169
0.000492
0.0003784
0.0005101
0.001101
0.002365
0.002894
0.0005729
5.051e-05
3.151e-06
5.442e-07
4.413e-07
1.702e-06
2.717e-06
1.991e-06
7.477e-07
1.59e-07
7.184e-08
2.15e-07
1.023e-06
8.471e-06
1.971e-05
7.35e-06
1.466e-06
1.414e-06
6.812e-06
0.000104
0.001732
0.005898
0.00779
0.006059
0.007285
0.008408
0.009592
0.01024
0.01107
0.01253
0.01967
0.0349
0.07102
0.1359
0.2563
0.3491
0.5255
0.7215
0.8845
0.9445
0.9708
0.9751
0.969
0.9652
0.9777
0.9913
0.9974
0.9989
0.9991
0.9985
0.9973
0.9964
0.997
0.9984
0.9992
0.9995
0.9996
0.9994
0.9982
0.9926
0.9692
0.917
0.8707
0.8488
0.8126
0.7423
0.6569
0.6338
0.5178
0.4134
0.2358
0.1978
0.1574
0.1983
0.1304
0.1033
0.09081
0.1192
0.1264
0.1492
0.1367
0.1435
0.1629
0.1923
0.2385
0.3211
0.4327
0.5418
0.6308
0.7075
0.7393
0.772
0.8048
0.8451
0.8802
0.9191
0.9435
0.9621
0.9722
0.9785
0.9836
0.9892
0.9937
0.9967
0.998
0.9988
0.9992
0.9995
0.9997
0.9998
0.9999
0.9999
1
1
1
1
1
1
1
1
1
0.0001092
6.289e-05
7.005e-05
9.957e-05
0.0001403
0.0001941
9.419e-05
4.219e-05
2.415e-05
4.42e-05
5.821e-05
0.0002133
0.0007611
0.001842
0.00242
0.002169
0.000409
4.115e-05
7.377e-06
4.232e-06
1.806e-05
0.0002597
0.004355
0.01689
0.02547
0.01328
0.008747
0.005991
0.005915
0.008128
0.007582
0.00319
0.0007241
0.0002506
0.0001407
0.0001872
0.0004831
0.001044
0.001197
0.0003445
4.347e-05
6.041e-06
1.696e-06
1.538e-06
2.859e-06
2.939e-06
1.937e-06
5.295e-07
9.12e-08
4.487e-08
1.355e-07
1.305e-06
2.489e-05
0.0001303
7.504e-05
1.48e-05
9.111e-06
3.075e-05
0.0002944
0.003079
0.008099
0.008921
0.006317
0.007074
0.00928
0.01405
0.02012
0.03121
0.05428
0.1042
0.261
0.505
0.6744
0.7573
0.7799
0.8299
0.9061
0.968
0.99
0.9961
0.9968
0.996
0.9957
0.9978
0.9994
0.9999
1
1
1
0.9999
0.9999
0.9999
0.9999
1
1
1
0.9999
0.9998
0.9994
0.9979
0.9936
0.989
0.9847
0.9784
0.9662
0.9483
0.9351
0.9116
0.9124
0.9201
0.9323
0.9395
0.943
0.9004
0.8208
0.6758
0.563
0.5198
0.5544
0.5748
0.6332
0.6964
0.7502
0.7945
0.8329
0.8672
0.8975
0.9212
0.9421
0.9525
0.9625
0.9696
0.9778
0.9843
0.9904
0.9939
0.9964
0.9976
0.9983
0.9988
0.9992
0.9995
0.9997
0.9998
0.9999
0.9999
0.9999
1
1
1
1
1
1
1
1
1
1
1
1
1
0.0001072
9.333e-05
0.0001053
0.00014
0.0001605
0.0001856
7.715e-05
4.584e-05
5.163e-05
9.454e-05
0.0001805
0.0006736
0.001607
0.002287
0.002679
0.001761
0.0004708
5.531e-05
1.005e-05
4.469e-06
1.616e-05
0.0001984
0.003316
0.01284
0.02355
0.0172
0.01648
0.01461
0.01515
0.01666
0.01268
0.005217
0.001593
0.0005801
0.0002761
0.0002843
0.0006143
0.001047
0.001061
0.0004684
0.000131
2.982e-05
1.382e-05
1.021e-05
7.824e-06
6.92e-06
3.735e-06
1.849e-06
5.867e-07
4.771e-07
1.073e-06
5.838e-06
5.021e-05
0.0001658
0.0001269
5.05e-05
5.524e-05
0.0001724
0.001486
0.007821
0.01295
0.01193
0.009701
0.01334
0.02431
0.04461
0.07212
0.1392
0.3094
0.5855
0.7672
0.8557
0.897
0.9159
0.9432
0.9686
0.9871
0.997
0.9991
0.9996
0.9997
0.9997
0.9997
0.9999
1
1
1
1
1
1
1
1
1
1
1
1
1
0.9999
0.9999
0.9997
0.9993
0.999
0.9987
0.9982
0.9972
0.9954
0.9936
0.9923
0.9951
0.9976
0.999
0.9994
0.9994
0.9983
0.9935
0.9732
0.9263
0.8743
0.8683
0.8813
0.9042
0.9253
0.9459
0.9622
0.9739
0.9822
0.9877
0.9908
0.9935
0.9948
0.9962
0.9973
0.9981
0.9987
0.9991
0.9994
0.9996
0.9998
0.9998
0.9999
0.9999
0.9999
0.9999
1
1
1
1
1
1
1
1
1
1
1
1
1
1
1
1
1
0.0002122
0.0002279
0.000278
0.0002557
0.0002266
0.0002056
0.0001239
0.0001207
0.000294
0.00041
0.0006824
0.001283
0.001798
0.00161
0.00173
0.001468
0.0009495
0.0001671
3.779e-05
1.312e-05
3.36e-05
0.0002603
0.002887
0.008472
0.01324
0.01254
0.01634
0.02039
0.02368
0.02464
0.01924
0.01109
0.005465
0.002672
0.001241
0.0009968
0.001336
0.001782
0.001862
0.001404
0.0006649
0.0002634
0.0001682
0.0001228
6.093e-05
5.561e-05
3.835e-05
2.474e-05
9.877e-06
7.084e-06
7.23e-06
1.794e-05
5.643e-05
0.000124
0.0001273
0.0001324
0.0003346
0.001685
0.009005
0.02389
0.02762
0.02691
0.03182
0.05663
0.1254
0.2514
0.4063
0.622
0.7714
0.8629
0.9215
0.9619
0.9765
0.9827
0.9915
0.9965
0.9987
0.9997
0.9999
0.9999
0.9999
0.9999
0.9999
1
1
1
1
1
1
1
1
1
1
1
1
1
1
1
1
0.9999
0.9999
0.9999
0.9999
0.9998
0.9997
0.9995
0.9993
0.9994
0.9997
0.9999
1
1
1
1
0.9998
0.9984
0.9927
0.9817
0.9775
0.9813
0.9865
0.991
0.994
0.996
0.9973
0.9981
0.9987
0.999
0.9993
0.9994
0.9996
0.9997
0.9998
0.9998
0.9999
0.9999
0.9999
1
1
1
1
1
1
1
1
1
1
1
1
1
1
1
1
1
1
1
1
1
1
1
0.0007303
0.0008203
0.0009701
0.0004411
0.0003252
0.0002281
0.0002655
0.0005481
0.001757
0.001401
0.001609
0.0009164
0.00102
0.0006682
0.0008604
0.000592
0.0002622
3.148e-05
5.715e-06
2.046e-06
5.338e-06
4.249e-05
0.0005307
0.001697
0.003885
0.004918
0.007045
0.01122
0.01556
0.0163
0.01404
0.0105
0.008596
0.006476
0.004192
0.003114
0.003646
0.004262
0.00505
0.005788
0.003139
0.001774
0.00116
0.000999
0.0005428
0.0006496
0.0005288
0.0004159
0.0002099
0.000171
0.0001181
0.0001266
0.0002053
0.0003901
0.0006152
0.0009748
0.002765
0.008585
0.02449
0.04494
0.06397
0.07662
0.1222
0.26
0.5333
0.6911
0.7837
0.8813
0.9364
0.9649
0.9802
0.9909
0.9949
0.9969
0.9985
0.9995
0.9998
1
1
1
1
1
1
1
1
1
1
1
1
1
1
1
1
1
1
1
1
1
1
1
1
1
1
1
1
0.9999
0.9999
0.9999
1
1
1
1
1
1
1
0.9998
0.999
0.9972
0.9966
0.9973
0.9982
0.9988
0.9992
0.9994
0.9996
0.9997
0.9998
0.9998
0.9999
0.9999
0.9999
1
1
1
1
1
1
1
1
1
1
1
1
1
1
1
1
1
1
1
1
1
1
1
1
1
1
1
1
1
0.001636
0.002014
0.002825
0.001019
0.0004946
0.0002896
0.0005213
0.001795
0.005825
0.003525
0.002593
0.0008973
0.0005083
0.0004368
0.0003711
9.639e-05
2.907e-05
2.763e-06
4.548e-07
1.851e-07
6.743e-07
1.026e-05
0.0001896
0.0009561
0.003009
0.00334
0.005933
0.009466
0.01402
0.01446
0.0133
0.0114
0.01172
0.0122
0.01035
0.009268
0.01071
0.01153
0.01343
0.01703
0.01023
0.00622
0.004094
0.004085
0.002451
0.002367
0.002032
0.00198
0.001786
0.001907
0.001567
0.001449
0.001782
0.002199
0.003146
0.005445
0.01136
0.02819
0.07111
0.1257
0.2126
0.3289
0.4713
0.6005
0.7454
0.8458
0.917
0.9644
0.9831
0.9912
0.9951
0.9978
0.9989
0.9995
0.9997
0.9999
0.9999
1
1
1
1
0.9999
1
1
1
1
1
1
1
1
1
1
1
1
1
1
1
1
1
1
1
1
1
1
1
1
1
1
1
1
1
1
1
1
1
1
0.9998
0.9996
0.9995
0.9996
0.9998
0.9998
0.9999
0.9999
0.9999
0.9999
1
1
1
1
1
1
1
1
1
1
1
1
1
1
1
1
1
1
1
1
1
1
1
1
1
1
1
1
1
1
1
1
1
1
0.002277
0.003354
0.00592
0.002544
0.0009764
0.0006313
0.001595
0.005039
0.01107
0.005916
0.002742
0.001107
0.0006384
0.0005332
0.0001731
2.419e-05
4.474e-06
4.864e-07
1.294e-07
8.339e-08
5.566e-07
9.55e-06
0.0001648
0.0009783
0.003846
0.003855
0.005891
0.009015
0.01214
0.01149
0.0108
0.009205
0.01132
0.01348
0.01561
0.01661
0.02064
0.02023
0.02197
0.02507
0.0171
0.01291
0.01005
0.009635
0.005411
0.004101
0.002676
0.002595
0.003528
0.005687
0.006408
0.005924
0.006978
0.008383
0.01522
0.02635
0.05069
0.09735
0.2179
0.4115
0.5897
0.6963
0.7976
0.8759
0.9441
0.9783
0.9924
0.997
0.9983
0.9987
0.9989
0.9992
0.9995
0.9997
0.9998
0.9999
0.9999
1
1
0.9999
0.9998
0.9999
0.9999
1
1
1
1
1
1
1
0.9999
0.9999
0.9999
0.9999
0.9999
0.9999
0.9999
1
1
1
1
1
1
1
1
1
1
1
1
1
1
1
1
1
1
1
1
0.9999
0.9999
0.9999
0.9999
1
1
1
1
1
1
1
1
1
1
1
1
1
1
1
1
1
1
1
1
1
1
1
1
1
1
1
1
1
1
1
1
1
1
1
1
1
1
1
0.001642
0.00313
0.006846
0.003217
0.001166
0.001081
0.003039
0.01369
0.02077
0.0101
0.003128
0.001163
0.000597
0.0005063
6.6e-05
7.71e-06
1.824e-06
4.453e-07
2.051e-07
2.186e-07
1.918e-06
2.956e-05
0.0005496
0.002881
0.008449
0.006207
0.007652
0.008997
0.01098
0.01098
0.01112
0.01067
0.01515
0.01846
0.01871
0.01909
0.02043
0.01509
0.01165
0.01163
0.01069
0.01239
0.01633
0.01877
0.01161
0.00659
0.002904
0.002246
0.002744
0.004924
0.007575
0.01038
0.01846
0.03351
0.06174
0.1007
0.1763
0.2874
0.5078
0.6804
0.8015
0.8696
0.9304
0.9675
0.9877
0.9957
0.9986
0.9993
0.9995
0.9994
0.9993
0.9993
0.9995
0.9997
0.9997
0.9997
0.9998
0.9997
0.9995
0.9992
0.999
0.9992
0.9996
0.9998
0.9998
0.9998
0.9998
0.9997
0.9997
0.9995
0.9993
0.9992
0.9993
0.9994
0.9995
0.9997
0.9997
0.9998
0.9999
0.9999
0.9999
0.9999
0.9999
0.9999
1
1
1
1
1
1
1
1
1
1
1
1
1
1
1
1
1
1
1
1
1
1
1
1
1
1
1
1
1
1
1
1
1
1
1
1
1
1
1
1
1
1
1
1
1
1
1
1
1
1
1
1
1
1
1
1
0.002188
0.00415
0.007969
0.004052
0.001087
0.001146
0.003749
0.01634
0.01938
0.008076
0.002526
0.000999
0.0003885
0.0003009
4.008e-05
5.996e-06
3.197e-06
2.403e-06
1.967e-06
3.27e-06
2.449e-05
0.0002363
0.00255
0.009942
0.02208
0.01459
0.01523
0.01341
0.01246
0.0109
0.01089
0.01252
0.0206
0.02706
0.02503
0.02301
0.02103
0.01412
0.009485
0.007773
0.006262
0.00725
0.009631
0.01315
0.0115
0.009455
0.005476
0.004096
0.003868
0.006385
0.01117
0.02006
0.04254
0.08721
0.1635
0.2736
0.4277
0.5646
0.7118
0.8197
0.8976
0.9498
0.9791
0.9919
0.997
0.9988
0.9995
0.9997
0.9997
0.9996
0.9994
0.9989
0.9989
0.9991
0.9991
0.9991
0.9989
0.998
0.9959
0.9941
0.9946
0.9963
0.998
0.9984
0.9983
0.9978
0.9977
0.997
0.9961
0.9951
0.9939
0.9932
0.9937
0.9941
0.9957
0.9973
0.9981
0.9989
0.9993
0.9995
0.9996
0.9996
0.9997
0.9998
0.9999
0.9999
0.9999
0.9999
0.9999
1
1
1
0.9999
0.9999
0.9999
0.9999
0.9999
1
1
1
1
1
1
1
1
1
1
1
1
1
1
1
1
1
1
1
1
1
1
1
1
1
1
1
1
1
1
1
1
1
1
1
1
1
1
1
1
1
1
1
0.003549
0.00646
0.01162
0.00628
0.001585
0.001644
0.003658
0.01208
0.01294
0.005796
0.0017
0.0008882
0.0004723
0.0003388
6.641e-05
1.907e-05
2.125e-05
3.728e-05
4.789e-05
8.366e-05
0.0003776
0.001664
0.007189
0.01705
0.02742
0.0192
0.01993
0.01651
0.01382
0.01084
0.01231
0.01761
0.03184
0.046
0.03935
0.03098
0.02072
0.01233
0.007151
0.005101
0.003623
0.004225
0.005925
0.01
0.01492
0.01876
0.0148
0.01274
0.01135
0.01401
0.01938
0.04044
0.09224
0.205
0.4212
0.5987
0.7188
0.8057
0.8713
0.9182
0.9583
0.982
0.9931
0.9973
0.9988
0.9993
0.9996
0.9997
0.9997
0.9995
0.999
0.9979
0.9969
0.996
0.996
0.9958
0.9939
0.989
0.9797
0.9728
0.9783
0.9821
0.9822
0.9815
0.9747
0.9615
0.9575
0.9476
0.9385
0.9389
0.9355
0.9284
0.9289
0.933
0.9514
0.9685
0.9793
0.9883
0.9929
0.9947
0.9962
0.9974
0.9983
0.9989
0.9993
0.9996
0.9997
0.9997
0.9998
0.9999
0.9999
0.9999
0.9999
0.9998
0.9998
0.9998
0.9999
1
1
1
1
1
1
1
1
1
1
1
1
1
1
1
1
1
1
1
1
1
1
1
1
1
1
1
1
1
1
1
1
1
1
1
1
1
1
1
1
1
1
1
0.006856
0.01155
0.0184
0.008174
0.002186
0.001855
0.002401
0.006945
0.009338
0.005599
0.00239
0.00211
0.001433
0.001062
0.0003103
0.0001185
0.0001411
0.0003106
0.0005327
0.0013
0.003433
0.005877
0.008748
0.009857
0.01007
0.01003
0.01672
0.01429
0.01208
0.008618
0.008235
0.01025
0.02001
0.03419
0.03599
0.0318
0.02227
0.01437
0.009784
0.007187
0.00503
0.005315
0.007026
0.01174
0.02256
0.03868
0.04074
0.04243
0.0406
0.04301
0.06267
0.1188
0.2751
0.5318
0.6942
0.7915
0.8604
0.9107
0.9477
0.9723
0.9878
0.9948
0.9977
0.9988
0.9992
0.9993
0.9995
0.9995
0.9994
0.9991
0.9983
0.9956
0.9913
0.9859
0.9842
0.9828
0.9768
0.9636
0.9423
0.9276
0.9301
0.9231
0.8979
0.8582
0.7937
0.7389
0.7143
0.6963
0.6665
0.6692
0.6737
0.6826
0.6777
0.6955
0.7624
0.8296
0.8869
0.9257
0.9457
0.9557
0.9679
0.9786
0.988
0.9925
0.9959
0.9975
0.9981
0.9984
0.9992
0.9996
0.9998
0.9998
0.9998
0.9996
0.9995
0.9997
0.9999
0.9999
1
1
0.9999
1
1
1
1
1
1
1
1
1
1
1
1
1
1
1
1
1
1
1
1
1
1
1
1
1
1
1
1
1
1
1
1
1
1
1
1
1
1
0.9999
0.009513
0.01534
0.02317
0.009623
0.002766
0.001377
0.001081
0.003218
0.006899
0.007402
0.004483
0.006015
0.004403
0.003309
0.001472
0.0007778
0.0009258
0.002117
0.003151
0.006329
0.01064
0.01016
0.008037
0.006087
0.005695
0.007054
0.01698
0.0151
0.01336
0.009695
0.008171
0.007885
0.01314
0.02413
0.03396
0.03966
0.03367
0.025
0.01907
0.01463
0.01066
0.01102
0.01377
0.02026
0.03523
0.06118
0.07754
0.101
0.1346
0.1686
0.2461
0.4182
0.6038
0.7413
0.8337
0.8899
0.9327
0.9644
0.9836
0.9933
0.9971
0.9985
0.999
0.999
0.9988
0.9982
0.9979
0.9974
0.9975
0.997
0.9956
0.9895
0.9786
0.9618
0.951
0.947
0.9324
0.9053
0.8642
0.8202
0.7883
0.7337
0.6447
0.5682
0.4964
0.4736
0.4338
0.4131
0.3424
0.3086
0.2918
0.2961
0.3089
0.358
0.3981
0.4178
0.4797
0.5335
0.58
0.6127
0.6887
0.7741
0.8567
0.9089
0.9501
0.9719
0.9824
0.9878
0.9936
0.9965
0.9981
0.9988
0.999
0.9988
0.999
0.9993
0.9997
0.9999
0.9999
0.9999
0.9999
0.9999
1
1
1
1
1
1
1
1
1
1
1
1
1
1
1
1
1
1
1
1
1
1
1
1
1
1
1
1
1
1
1
1
1
1
0.9999
0.9998
0.9996
0.999
0.009933
0.01515
0.02405
0.008355
0.002652
0.0007457
0.0004518
0.001498
0.006666
0.0134
0.01331
0.01854
0.01331
0.009952
0.005548
0.003979
0.003275
0.006136
0.007427
0.0127
0.01581
0.01143
0.007573
0.004986
0.006369
0.009872
0.02457
0.02311
0.01946
0.01307
0.009807
0.007228
0.009083
0.01572
0.02763
0.04428
0.05184
0.0412
0.0343
0.02887
0.02514
0.02855
0.03483
0.04433
0.06357
0.09562
0.1303
0.1846
0.2946
0.4349
0.5695
0.6883
0.7814
0.8434
0.8977
0.9376
0.9699
0.9885
0.9962
0.9988
0.9995
0.9996
0.9994
0.999
0.9982
0.997
0.9963
0.9949
0.9941
0.9925
0.9883
0.9732
0.9453
0.8976
0.8525
0.8238
0.7749
0.71
0.6407
0.561
0.4966
0.4012
0.2971
0.2444
0.1847
0.1411
0.114
0.1054
0.09819
0.09952
0.09522
0.0904
0.09912
0.1146
0.1303
0.1318
0.1552
0.1825
0.2273
0.2627
0.3389
0.4175
0.5218
0.6227
0.7058
0.7514
0.8105
0.8618
0.9175
0.9529
0.973
0.9843
0.9914
0.9947
0.9981
0.9991
0.9996
0.9998
0.9999
0.9999
1
1
1
1
1
1
1
1
1
1
1
1
1
1
1
1
1
1
1
1
1
1
1
1
1
1
1
1
1
1
1
1
1
0.9999
0.9999
0.9997
0.9992
0.9982
0.9963
0.9904
0.007091
0.01049
0.0191
0.008745
0.004974
0.001138
0.00058
0.001088
0.004924
0.008536
0.0122
0.01784
0.0172
0.01342
0.008598
0.007866
0.00642
0.01009
0.01435
0.01868
0.01749
0.01246
0.008778
0.006321
0.006755
0.008932
0.01931
0.02097
0.0227
0.01893
0.01421
0.008523
0.008239
0.01098
0.02017
0.03723
0.05053
0.04006
0.03594
0.03591
0.04041
0.05537
0.07141
0.08833
0.1151
0.1625
0.2343
0.3606
0.5091
0.6327
0.7285
0.7992
0.8488
0.885
0.9222
0.9569
0.9827
0.9951
0.9988
0.9997
0.9998
0.9997
0.9993
0.9982
0.9961
0.9933
0.9908
0.9849
0.9797
0.9706
0.9556
0.9144
0.8492
0.7559
0.6784
0.618
0.5339
0.4257
0.3177
0.2401
0.1774
0.1323
0.09463
0.07219
0.04789
0.03268
0.02454
0.02424
0.02575
0.02984
0.02738
0.02457
0.02983
0.03967
0.05123
0.05758
0.0651
0.07014
0.0851
0.09851
0.115
0.1353
0.1836
0.2653
0.3922
0.4754
0.5691
0.6333
0.6849
0.7301
0.7684
0.8343
0.9202
0.9694
0.9944
0.9986
0.9995
0.9998
0.9999
0.9999
1
0.9999
0.9999
0.9999
1
1
1
1
1
1
1
1
1
1
1
1
1
1
1
1
1
1
1
1
1
1
1
1
1
1
0.9999
0.9998
0.9996
0.9991
0.9985
0.9968
0.992
0.9788
0.9549
0.9095
0.005312
0.007128
0.0146
0.009727
0.00868
0.001778
0.0009285
0.0009525
0.002987
0.005126
0.009043
0.01272
0.01597
0.0148
0.008707
0.007564
0.00682
0.01137
0.02106
0.02541
0.02068
0.0152
0.01333
0.01204
0.01229
0.01223
0.01834
0.01918
0.02257
0.02247
0.0178
0.009599
0.009071
0.009999
0.01679
0.02914
0.04191
0.0359
0.03722
0.04129
0.05244
0.07588
0.1004
0.1243
0.1664
0.2381
0.3548
0.5073
0.6356
0.7327
0.7973
0.842
0.879
0.9126
0.9462
0.9722
0.989
0.9965
0.9991
0.9997
0.9997
0.9996
0.9986
0.9954
0.9886
0.9814
0.9673
0.9382
0.9048
0.8652
0.831
0.7758
0.6854
0.5675
0.4486
0.3376
0.239
0.1529
0.09384
0.06481
0.03649
0.02559
0.01968
0.01527
0.01038
0.008349
0.005841
0.006229
0.00795
0.009626
0.009019
0.008468
0.01123
0.01762
0.02687
0.03622
0.04239
0.04427
0.05276
0.06111
0.06695
0.0744
0.08631
0.1049
0.1302
0.1619
0.2157
0.3078
0.3732
0.4376
0.507
0.6267
0.7859
0.9162
0.9855
0.9972
0.9993
0.9998
0.9999
0.9999
1
1
0.9999
1
1
1
1
1
1
1
1
1
1
1
1
1
1
1
1
1
1
1
1
1
1
1
0.9999
0.9998
0.9997
0.9994
0.9986
0.9967
0.9936
0.988
0.9787
0.9568
0.9171
0.855
0.7869
0.707
0.005643
0.006238
0.01422
0.01032
0.01069
0.002296
0.001191
0.0007677
0.001594
0.002919
0.005876
0.009534
0.01605
0.01748
0.008782
0.006879
0.00742
0.01386
0.01675
0.01332
0.008203
0.007698
0.01329
0.02386
0.02527
0.01714
0.01546
0.01561
0.01988
0.02163
0.02014
0.01399
0.01389
0.01215
0.01459
0.01749
0.02122
0.02049
0.03036
0.04244
0.05799
0.08307
0.1145
0.1549
0.2398
0.3692
0.5022
0.6284
0.7328
0.806
0.8526
0.884
0.9307
0.9659
0.9882
0.9956
0.9983
0.9991
0.9995
0.9996
0.9995
0.9985
0.995
0.9847
0.964
0.9425