/*--------------------------------*- C++ -*----------------------------------*\
| =========                 |                                                 |
| \\      /  F ield         | OpenFOAM: The Open Source CFD Toolbox           |
|  \\    /   O peration     | Version:  5.x                                   |
|   \\  /    A nd           | Web:      www.OpenFOAM.org                      |
|    \\/     M anipulation  |                                                 |
\*---------------------------------------------------------------------------*/
FoamFile
{
    version     2.0;
    format      ascii;
    class       volScalarField;
    location    "165";
    object      gamma;
}
// * * * * * * * * * * * * * * * * * * * * * * * * * * * * * * * * * * * * * //

dimensions      [0 0 0 0 0 0 0];

internalField   nonuniform List<scalar> 
86400
(
2.548e-07
3.256e-07
5.402e-07
1.112e-06
2.702e-06
4.599e-06
5.535e-06
6.244e-06
7.167e-06
6.578e-06
9.165e-06
1.026e-05
1.037e-05
6.826e-06
4.875e-06
4.939e-06
1.232e-05
3.53e-05
7.099e-05
9.748e-05
0.000119
0.0001775
0.0004269
0.0006649
0.0007985
0.001193
0.001144
0.001192
0.001185
0.001056
0.0008737
0.0007746
0.0007789
0.0008817
0.001225
0.002081
0.003036
0.003777
0.003248
0.003134
0.002617
0.00256
0.002204
0.001547
0.0014
0.001767
0.002845
0.004114
0.005651
0.005098
0.005002
0.005249
0.005711
0.006569
0.007462
0.009412
0.01197
0.01281
0.01188
0.01048
0.008196
0.008031
0.007898
0.008709
0.01141
0.01582
0.01696
0.01682
0.01257
0.01101
0.01327
0.01958
0.02288
0.02044
0.01794
0.01613
0.01413
0.01605
0.01935
0.01829
0.01734
0.01479
0.01362
0.01538
0.02107
0.02367
0.02497
0.02243
0.0225
0.02208
0.01786
0.01805
0.01941
0.02587
0.02952
0.03169
0.02576
0.02383
0.02302
0.02158
0.01939
0.01418
0.01013
0.00639
0.004166
0.004265
0.006442
0.009816
0.007815
0.004495
0.002094
0.001365
0.001419
0.001753
0.001777
0.001623
0.001476
0.001364
0.001347
0.001352
0.001338
0.00129
0.00114
0.0009496
0.0008233
0.0007718
0.0007125
0.0006874
0.0006455
0.0005738
0.0004735
0.0005022
0.0004187
0.0002671
0.0001784
0.0001316
0.0001433
0.000225
0.0001516
5.123e-05
1.837e-05
9.098e-06
8.548e-06
6.009e-06
1.515e-06
2.37e-07
4.396e-08
7.111e-09
2.815e-09
3.861e-09
6.802e-09
4.803e-08
7.023e-07
6.384e-06
3.854e-05
0.0001524
0.0002501
0.0005407
0.09669
0.9986
3.369e-07
3.614e-07
5.368e-07
9.639e-07
2.42e-06
4.154e-06
4.802e-06
4.594e-06
3.669e-06
2.777e-06
3.836e-06
5.34e-06
8.37e-06
1.013e-05
8.376e-06
6.167e-06
1.267e-05
3.508e-05
8.619e-05
0.000215
0.0003117
0.0004126
0.0006822
0.001015
0.001259
0.001589
0.001677
0.001845
0.002113
0.001717
0.001445
0.001311
0.001407
0.001693
0.002509
0.00428
0.006829
0.009523
0.009443
0.009184
0.00716
0.006055
0.005182
0.003766
0.002846
0.003129
0.004068
0.005522
0.008099
0.008948
0.009659
0.01117
0.01351
0.01581
0.01335
0.01064
0.008526
0.006649
0.005313
0.005278
0.004605
0.004446
0.004048
0.003972
0.004493
0.007056
0.008664
0.01023
0.009162
0.009731
0.01284
0.0179
0.01465
0.01026
0.006804
0.006854
0.009644
0.0165
0.02281
0.02216
0.01929
0.01609
0.0171
0.02053
0.03047
0.0367
0.04202
0.03941
0.04268
0.04725
0.04581
0.0489
0.04946
0.04679
0.04088
0.03404
0.02474
0.02086
0.01906
0.01701
0.01691
0.01733
0.01919
0.01736
0.01171
0.00936
0.01075
0.01347
0.01228
0.008228
0.00365
0.002143
0.001568
0.001384
0.001189
0.001207
0.001609
0.002602
0.003931
0.004532
0.004702
0.004612
0.004121
0.003457
0.00305
0.002933
0.002696
0.002565
0.002322
0.002008
0.001671
0.001399
0.0009026
0.0005651
0.0004139
0.0002969
0.0002898
0.0003176
0.0001906
5.809e-05
2.528e-05
9.997e-06
5.491e-06
3.057e-06
8.839e-07
2.762e-07
1.056e-07
5.343e-08
7.927e-08
1.788e-07
4.407e-07
2.207e-06
1.398e-05
7.986e-05
0.0006328
0.005415
0.0343
0.5161
0.9395
0.9994
5.444e-07
5.275e-07
7.01e-07
1.052e-06
2.404e-06
3.762e-06
3.917e-06
3.295e-06
2.102e-06
1.817e-06
2.702e-06
5.573e-06
1.01e-05
1.702e-05
1.385e-05
1.231e-05
2.92e-05
8.765e-05
0.000163
0.0003725
0.0003828
0.0004455
0.000729
0.001197
0.001298
0.001878
0.002393
0.003247
0.004563
0.004169
0.003364
0.003547
0.003652
0.003615
0.003814
0.004523
0.005849
0.007518
0.006096
0.005376
0.003967
0.003697
0.003368
0.003175
0.002699
0.003364
0.005264
0.007909
0.01212
0.01492
0.01282
0.009986
0.008035
0.006955
0.00502
0.004647
0.00391
0.00295
0.002261
0.00231
0.002309
0.002522
0.002727
0.00337
0.003447
0.004265
0.004955
0.005984
0.005712
0.007053
0.008914
0.009189
0.005866
0.004596
0.0042
0.007
0.01497
0.02912
0.03877
0.04041
0.03466
0.0267
0.02766
0.03253
0.05161
0.06145
0.07113
0.0702
0.06229
0.05089
0.03669
0.02725
0.01961
0.01965
0.01934
0.01901
0.01796
0.01806
0.01601
0.01469
0.01635
0.02053
0.02812
0.02951
0.02369
0.01976
0.01775
0.01996
0.01859
0.01311
0.007582
0.005729
0.003658
0.002819
0.002347
0.002599
0.003248
0.004509
0.005333
0.004623
0.004135
0.004303
0.003972
0.003423
0.003018
0.002812
0.002469
0.002231
0.001904
0.001724
0.001601
0.001281
0.0007087
0.0003339
0.0002102
0.0001583
0.0002072
0.0002814
0.0002221
8.989e-05
3.472e-05
1.435e-05
1.037e-05
7.242e-06
3.343e-06
1.468e-06
7.107e-07
6.01e-07
1.583e-06
5.28e-06
1.346e-05
4.461e-05
0.0002355
0.001478
0.01307
0.173
0.8127
0.9851
0.9992
1
9.242e-07
8.701e-07
9.405e-07
1.112e-06
2.073e-06
2.71e-06
2.296e-06
1.676e-06
1.118e-06
1.347e-06
1.868e-06
2.295e-06
2.443e-06
6.118e-06
7.603e-06
1.238e-05
3.113e-05
5.096e-05
4.66e-05
5.725e-05
4.672e-05
3.763e-05
8.42e-05
0.0001761
0.0001988
0.0003612
0.0006692
0.001161
0.002222
0.002822
0.002353
0.003188
0.003975
0.004422
0.004482
0.004673
0.005088
0.006329
0.004455
0.003944
0.003386
0.003708
0.004788
0.00594
0.003976
0.00345
0.003039
0.003229
0.004175
0.005781
0.004421
0.003019
0.002598
0.002422
0.001798
0.001726
0.001336
0.001004
0.0009121
0.0012
0.001444
0.001927
0.002445
0.002778
0.00261
0.003081
0.003229
0.003601
0.003616
0.005597
0.008817
0.008913
0.006349
0.005709
0.004563
0.008391
0.01799
0.02954
0.02961
0.0313
0.02575
0.02093
0.02102
0.02189
0.02593
0.02773
0.03072
0.0309
0.03148
0.0345
0.0374
0.03716
0.02832
0.02756
0.02471
0.02295
0.02273
0.02444
0.02162
0.02189
0.02242
0.02368
0.03463
0.0378
0.02784
0.02152
0.01442
0.01407
0.01367
0.01265
0.007559
0.006507
0.003819
0.002686
0.002131
0.002833
0.004552
0.007505
0.009129
0.007603
0.006262
0.006731
0.006429
0.005736
0.005161
0.004778
0.004145
0.003702
0.003304
0.003151
0.003157
0.002552
0.001364
0.0006314
0.0003587
0.0001735
0.0001359
0.0001015
7.066e-05
4.439e-05
2.135e-05
9.801e-06
8.484e-06
8.289e-06
7.026e-06
6.255e-06
6.437e-06
1.083e-05
5.335e-05
0.0002532
0.001024
0.003454
0.01399
0.07815
0.6097
0.9468
0.9966
0.9999
1
1
1.921e-06
2.08e-06
2.008e-06
2.103e-06
2.665e-06
2.333e-06
1.24e-06
9.752e-07
8.475e-07
1.353e-06
1.555e-06
9.824e-07
4.985e-07
1.331e-06
2.394e-06
1.042e-05
5.223e-05
3.824e-05
1.043e-05
7.608e-06
7.051e-06
6.26e-06
2.342e-05
4.9e-05
6.06e-05
0.0001636
0.0005438
0.001852
0.004637
0.005052
0.002188
0.001796
0.001556
0.001548
0.001622
0.001582
0.001323
0.001886
0.001976
0.002848
0.002564
0.002218
0.001211
0.0007845
0.0003564
0.0002874
0.0002193
0.0002674
0.0004993
0.001246
0.001519
0.001575
0.00139
0.001478
0.001271
0.001354
0.001174
0.000957
0.001196
0.002063
0.003229
0.004985
0.007399
0.008432
0.005861
0.004113
0.00329
0.002838
0.002517
0.003609
0.005671
0.005019
0.004827
0.005855
0.00662
0.01009
0.01825
0.01927
0.0158
0.01812
0.01533
0.01229
0.01272
0.01483
0.0197
0.02548
0.02948
0.02667
0.02372
0.02395
0.02366
0.02932
0.0264
0.02701
0.02207
0.02194
0.01607
0.01636
0.01609
0.0145
0.009784
0.005386
0.004541
0.005117
0.00597
0.01035
0.01179
0.01048
0.009612
0.01358
0.009991
0.01025
0.006821
0.005224
0.003837
0.003689
0.003446
0.003585
0.002856
0.00247
0.002017
0.002193
0.002133
0.002013
0.001908
0.001827
0.001638
0.001524
0.001457
0.001513
0.001612
0.001199
0.0005556
0.0002285
7.596e-05
2.791e-05
1.961e-05
2.173e-05
1.796e-05
1.546e-05
1.033e-05
8.216e-06
1.146e-05
2.084e-05
3.893e-05
7.208e-05
0.0001321
0.0003227
0.001895
0.007743
0.02949
0.1066
0.4567
0.8775
0.9857
0.9992
1
1
1
1
2.866e-06
4.044e-06
3.872e-06
4.043e-06
2.932e-06
1.777e-06
7.516e-07
6.884e-07
9.35e-07
2.346e-06
2.833e-06
9.179e-07
2.453e-07
4.44e-07
2.111e-06
1.329e-05
5.57e-05
2.542e-05
5.859e-06
5.236e-06
9.584e-06
1.256e-05
5.703e-05
3.511e-05
1.746e-05
2.121e-05
5.893e-05
0.0002371
0.001201
0.001262
0.0004451
0.0002948
0.0002504
0.0002776
0.0004917
0.0005943
0.0003729
0.0004079
0.0004496
0.0004336
0.0002239
0.0001235
3.404e-05
1.339e-05
5.631e-06
2.205e-06
4.69e-07
4.367e-07
9.255e-07
3.903e-06
8.937e-06
2.319e-05
4.944e-05
8.834e-05
0.0001149
0.00011
8.172e-05
9.539e-05
0.0003329
0.0013
0.003712
0.005563
0.004733
0.003887
0.002409
0.001655
0.002586
0.003587
0.003664
0.005555
0.009143
0.007093
0.006491
0.006681
0.005207
0.004867
0.003843
0.00309
0.002817
0.004639
0.006897
0.01244
0.01801
0.02466
0.03223
0.0379
0.03597
0.02932
0.02713
0.0331
0.03324
0.02136
0.007791
0.002796
0.0008694
0.0005314
0.0002914
0.0003345
0.0003826
0.0006365
0.0007808
0.0007447
0.0006573
0.0006728
0.0007037
0.001402
0.001783
0.002686
0.003771
0.003955
0.002465
0.002463
0.002013
0.002003
0.001678
0.001533
0.001318
0.001268
0.001085
0.001012
0.0008155
0.0008146
0.0007656
0.00074
0.0007121
0.0006525
0.0005703
0.0004857
0.0004032
0.0003327
0.0003221
0.00028
0.0002005
0.000142
7.017e-05
2.803e-05
1.512e-05
1.353e-05
1.328e-05
1.725e-05
1.751e-05
2.174e-05
4.202e-05
0.0001205
0.0004058
0.001288
0.003583
0.01074
0.04366
0.1728
0.653
0.9041
0.9813
0.9984
0.9999
1
1
1
1
1
3.283e-06
6.012e-06
5.206e-06
4.571e-06
2.617e-06
1.471e-06
6.168e-07
9.642e-07
2.913e-06
9.885e-06
1.018e-05
2.408e-06
2.588e-07
2.818e-07
7.236e-07
7.065e-06
5.178e-05
5.997e-05
2.463e-05
3.2e-05
8.384e-05
0.0001067
0.0003102
6.766e-05
1.872e-05
1.175e-05
2.368e-05
7.385e-05
0.0005064
0.0005654
0.0002043
9.075e-05
8.558e-05
0.0001301
0.0002705
0.0002931
0.0001196
9.453e-05
0.0001467
0.0001503
5.086e-05
1.309e-05
1.34e-06
2.458e-07
9.02e-08
1.449e-08
1.485e-09
1.032e-09
2.265e-09
1.603e-08
6.387e-08
2.387e-07
7.539e-07
2.094e-06
3.704e-06
4.005e-06
3.849e-06
7.66e-06
6.883e-05
0.0004674
0.002453
0.004973
0.004358
0.004543
0.004638
0.003423
0.0066
0.009939
0.009449
0.008995
0.01309
0.005724
0.003031
0.002253
0.001864
0.002199
0.001535
0.0009609
0.0004882
0.0005115
0.0008171
0.002694
0.005604
0.00668
0.008938
0.01101
0.01287
0.01516
0.02803
0.05288
0.04202
0.02556
0.008283
0.0021
0.0004048
0.0001988
7.2e-05
6.815e-05
5.712e-05
0.0001353
0.0002294
0.000262
0.0002775
0.0001707
9.162e-05
8.629e-05
9.131e-05
0.0001076
0.0003127
0.0004852
0.0006295
0.000979
0.001109
0.001407
0.001455
0.00134
0.0009158
0.0007358
0.0005601
0.0006055
0.0005771
0.0005431
0.0004383
0.0003107
0.0002468
0.0002102
0.0001957
0.000179
0.0001537
0.0001084
0.000101
0.0001114
0.000122
0.0001299
9.723e-05
5.923e-05
5.829e-05
9.016e-05
0.0001413
0.0003076
0.0005777
0.001106
0.002659
0.00834
0.02472
0.07043
0.2088
0.5695
0.8541
0.9631
0.9938
0.9993
0.9999
1
1
1
1
1
1
1
5.282e-06
9.209e-06
5.981e-06
4.57e-06
2.84e-06
1.774e-06
1.11e-06
3.419e-06
9.623e-06
1.695e-05
1.683e-05
3.272e-06
3.276e-07
2.892e-07
6.208e-07
4.585e-06
3.809e-05
0.0001117
0.0001893
0.0007659
0.001815
0.001872
0.002901
0.0006051
0.0001129
2.26e-05
2.943e-05
5.443e-05
0.0002842
0.0003997
0.000214
0.0001816
0.0001812
0.0002814
0.0004601
0.0004167
0.0001584
0.0001531
0.000356
0.0001835
3.5e-05
3.58e-06
3.151e-07
3.61e-08
1.573e-08
1.375e-09
9.434e-11
5.476e-11
1.381e-10
1.14e-09
6.433e-09
4.117e-08
2.72e-07
1.362e-06
2.48e-06
1.095e-06
4.742e-07
5.951e-07
5.125e-06
5.205e-05
0.0006172
0.002531
0.003291
0.004511
0.005861
0.005035
0.008969
0.009687
0.005354
0.00182
0.001272
0.0005193
0.0002434
0.0001903
0.000265
0.0003402
0.0002804
0.0004506
0.0003722
0.0007075
0.001528
0.007219
0.01898
0.03447
0.05391
0.1574
0.6533
0.8735
0.9669
0.9848
0.9769
0.9435
0.8123
0.2588
0.03218
0.008708
0.001618
0.0009133
0.000439
0.0004004
0.000294
0.0004497
0.0002045
3.905e-05
7.687e-06
4.625e-06
9.963e-06
2.066e-05
7.077e-05
5.257e-05
5.514e-05
6.953e-05
0.000114
0.0002071
0.0002483
0.0002491
0.000286
0.0003103
0.0003051
0.0004704
0.0006324
0.0007517
0.00068
0.000455
0.0003244
0.0002699
0.0002736
0.0002668
0.0002432
0.0001623
0.0001543
0.0001913
0.0003556
0.0006225
0.0008835
0.0008127
0.0008819
0.001294
0.002589
0.007481
0.02105
0.05625
0.1504
0.416
0.7341
0.9166
0.9767
0.9948
0.9992
0.9999
1
1
1
1
1
1
1
1
1
1
8.208e-06
1.05e-05
5.493e-06
3.786e-06
2.482e-06
2.053e-06
2.822e-06
7.699e-06
1.269e-05
1.475e-05
8.343e-06
2.227e-06
6.811e-07
7.458e-07
1.692e-06
7.107e-06
2.193e-05
7.185e-05
0.0001942
0.0003805
0.0009918
0.001956
0.005524
0.003443
0.001189
0.0003258
0.0001497
0.0001764
0.0004455
0.0006819
0.0005098
0.00073
0.000637
0.0008133
0.0006722
0.0003305
7.967e-05
0.0001134
0.0002533
6.093e-05
7.681e-06
6.12e-07
7.521e-08
1.357e-08
1.347e-08
2.4e-09
4.071e-10
2.786e-10
6.478e-10
1.314e-09
3.882e-09
1.433e-08
6.909e-08
3.069e-07
6.378e-07
3.396e-07
1.228e-07
1.22e-07
6.786e-07
8.577e-06
0.0002111
0.0018
0.004819
0.007708
0.007178
0.002933
0.002207
0.001389
0.0005362
0.0001431
9.77e-05
5.322e-05
3.457e-05
4.022e-05
0.0001779
0.0008713
0.002352
0.01047
0.02281
0.0689
0.3553
0.7925
0.9199
0.9619
0.9817
0.9952
0.9992
0.9998
0.9999
0.9999
0.9997
0.9985
0.9953
0.9836
0.9723
0.9519
0.872
0.6471
0.1498
0.0398
0.01469
0.01103
0.002966
0.0003038
5.628e-05
1.32e-05
1.228e-05
1.411e-05
2.366e-05
6.041e-06
3.914e-06
2.316e-06
2.892e-06
6.617e-06
2.407e-05
9.504e-05
0.0002389
0.0002555
0.0001912
0.0001667
0.0001959
0.00031
0.0003661
0.0002915
0.0002224
0.0001813
0.0002232
0.0002743
0.0003257
0.000295
0.0003911
0.0007053
0.001697
0.004219
0.0102
0.01941
0.04013
0.09692
0.2568
0.5999
0.823
0.9324
0.9748
0.9913
0.9978
0.9996
0.9999
1
1
1
1
1
1
1
1
1
1
1
1
1
6.622e-06
6.617e-06
4.002e-06
3.069e-06
2.848e-06
3.753e-06
4.861e-06
7.695e-06
8.033e-06
6.931e-06
2.776e-06
1.369e-06
1.152e-06
1.904e-06
5.877e-06
1.451e-05
4.868e-05
6.451e-05
0.0001017
7.353e-05
0.0001406
0.0004114
0.002052
0.004722
0.003885
0.001348
0.0003538
0.0003533
0.0004134
0.0008819
0.001436
0.003414
0.003226
0.003357
0.001042
0.0003348
0.0001316
0.0002206
0.0002034
2.125e-05
1.861e-06
1.392e-07
3.351e-08
1.866e-08
2.667e-08
8.54e-09
4.997e-09
5.886e-09
6.075e-09
3.95e-09
3.672e-09
4.713e-09
2.588e-08
1.92e-07
5.272e-07
4.154e-07
2.339e-07
1.975e-07
6.243e-07
7.345e-06
0.0001325
0.001452
0.003269
0.003715
0.001913
0.0004553
0.0001541
0.0001039
6.853e-05
3.785e-05
6.079e-05
8.406e-05
0.0002435
0.001039
0.006625
0.03122
0.123
0.5944
0.8622
0.9605
0.9917
0.9981
0.9994
0.9997
0.9998
1
1
1
1
1
1
1
1
0.9999
0.9999
0.9999
0.9997
0.9989
0.9946
0.9762
0.923
0.8409
0.557
0.05515
0.005392
0.001121
0.0004655
0.0002522
0.0001544
1.303e-05
1.882e-06
3.455e-07
2.012e-07
1.628e-07
9.449e-07
9.881e-06
5.06e-05
0.0001069
0.0001255
8.834e-05
0.000128
0.0004082
0.0007266
0.0009565
0.001264
0.001575
0.002851
0.0055
0.009711
0.01174
0.01792
0.03183
0.06722
0.1883
0.5212
0.7576
0.8951
0.958
0.9845
0.9958
0.9989
0.9997
0.9999
1
1
1
1
1
1
1
1
1
1
1
1
1
1
1
1
1
5.633e-06
4.468e-06
3.525e-06
4.266e-06
6.472e-06
4.827e-06
2.335e-06
1.648e-06
1.078e-06
1.049e-06
9.242e-07
9.39e-07
2.368e-06
8.686e-06
2.03e-05
5.117e-05
9.124e-05
4.578e-05
3.949e-05
1.52e-05
2.606e-05
5.896e-05
0.0005714
0.003322
0.006633
0.004121
0.002758
0.001963
0.001179
0.001729
0.001884
0.002434
0.001507
0.001095
0.0003597
0.0001319
9.714e-05
0.000307
0.0001912
2.329e-05
1.309e-06
1.34e-07
2.115e-08
1.134e-08
1.002e-08
1.209e-08
6.76e-08
2.239e-07
2.397e-07
5.102e-08
6.959e-09
2.561e-09
1.427e-08
2.543e-07
2.08e-06
6.438e-06
6.482e-06
4.186e-06
6.988e-06
5.494e-05
0.0003686
0.001322
0.001429
0.0008556
0.0002547
7.079e-05
3.048e-05
4.375e-05
9.177e-05
0.0001902
0.0006619
0.004599
0.0242
0.1803
0.7737
0.9424
0.9872
0.9969
0.9993
0.9998
1
1
1
1
1
1
1
1
1
1
1
1
1
1
1
1
1
1
1
0.9999
0.9995
0.9989
0.9968
0.9882
0.9602
0.8423
0.4382
0.069
0.01405
0.001198
0.000114
8.669e-06
2.112e-06
9.597e-07
5.054e-06
5.106e-05
0.0002419
0.0004298
0.0005526
0.0003523
0.0005518
0.002178
0.00545
0.01039
0.01864
0.02538
0.0373
0.07311
0.2007
0.5334
0.8246
0.9302
0.9712
0.9891
0.9963
0.9987
0.9996
0.9999
1
1
1
1
1
1
1
1
1
1
1
1
1
1
1
1
1
1
1
1
1
1
5.123e-06
3.953e-06
3.943e-06
6.137e-06
1.036e-05
7.458e-06
1.872e-06
7.626e-07
2.936e-07
5.64e-07
7.684e-07
3.352e-06
1.364e-05
3.07e-05
6.649e-05
0.0001863
0.0001766
0.0001074
6.223e-05
1.926e-05
3.101e-05
9.047e-05
0.0007981
0.003406
0.007283
0.005771
0.006854
0.005066
0.00397
0.004077
0.003834
0.00292
0.001281
0.0005235
0.0002987
0.0001611
0.0001843
0.0006789
0.0002238
2.119e-05
9.531e-07
5.491e-08
5.574e-09
3.278e-09
1.743e-09
4.756e-09
5.293e-08
5.738e-07
6.724e-07
1.265e-07
8.429e-09
3.135e-09
2.475e-08
8.765e-07
1.384e-05
4.978e-05
6.945e-05
6.326e-05
7.121e-05
0.0001815
0.0001925
0.0001571
8.191e-05
4.96e-05
2.351e-05
3.14e-05
6.64e-05
0.0003643
0.002735
0.01794
0.1346
0.7503
0.945
0.9885
0.9979
0.9995
0.9999
1
1
1
1
1
1
1
1
1
1
1
1
1
1
1
1
1
1
1
1
1
1
1
1
1
1
0.9999
0.9998
0.9992
0.9966
0.9904
0.9667
0.8711
0.514
0.05285
0.01169
0.004367
0.007308
0.02157
0.035
0.03304
0.03239
0.02112
0.02575
0.05989
0.1316
0.4465
0.7815
0.9197
0.9706
0.9857
0.9939
0.9974
0.9993
0.9998
0.9999
1
1
1
1
1
1
1
1
1
1
1
1
1
1
1
1
1
1
1
1
1
1
1
1
1
1
1
2.484e-06
2.356e-06
2.69e-06
4.114e-06
9.639e-06
8.45e-06
1.866e-06
7.133e-07
5.984e-07
1.306e-06
3.441e-06
2.2e-05
4.884e-05
9.76e-05
0.0001565
0.0002329
0.0002075
0.0001624
8.884e-05
3.4e-05
5.053e-05
0.0001382
0.0007577
0.002057
0.004777
0.005025
0.01033
0.009831
0.01069
0.008723
0.009052
0.005404
0.002823
0.001518
0.0008278
0.000503
0.0006184
0.001591
0.0003316
3.996e-05
2.424e-06
1.53e-07
9.021e-09
6.015e-09
2.801e-09
1.176e-08
2.25e-07
4.531e-06
4.311e-06
9.942e-07
3.669e-08
8.576e-09
3.761e-08
1.171e-06
1.35e-05
5.981e-05
0.0001115
0.0001238
0.0001362
0.0001628
7.786e-05
3.756e-05
1.563e-05
2.277e-05
5.914e-05
0.0003655
0.003107
0.04974
0.5807
0.914
0.9827
0.997
0.9994
0.9999
1
1
1
1
1
1
1
1
1
1
1
1
1
1
1
1
1
1
1
1
1
1
1
1
1
1
1
1
1
1
1
1
1
0.9999
0.9997
0.9994
0.9984
0.9961
0.9929
0.9859
0.9846
0.9866
0.982
0.9799
0.9818
0.9803
0.9853
0.9906
0.994
0.9973
0.9992
0.9998
0.9999
1
1
1
1
1
1
1
1
1
1
1
1
1
1
1
1
1
1
1
1
1
1
1
1
1
1
1
1
1
1
1
1
1
2.842e-06
2.487e-06
3.143e-06
3.989e-06
9.461e-06
1.316e-05
4.534e-06
3.131e-06
2.456e-06
5.629e-06
1.482e-05
7.066e-05
9.283e-05
0.0001317
0.0001268
0.0001473
0.0001598
0.0001522
0.0001183
0.0001076
0.0002005
0.0004411
0.001005
0.0014
0.00175
0.001671
0.004206
0.004678
0.007202
0.009944
0.01295
0.0102
0.008229
0.004223
0.001767
0.0007814
0.0006051
0.00117
0.0005234
0.0001861
2.437e-05
2.626e-06
2.092e-07
1.426e-07
7.867e-08
3.31e-07
3.401e-06
5.712e-05
7.357e-05
2.961e-05
1.677e-06
5.331e-07
1.245e-06
9.491e-06
4.794e-05
8.321e-05
7.963e-05
7.555e-05
5.785e-05
5.446e-05
3.787e-05
3.433e-05
6.479e-05
0.0004497
0.004691
0.07812
0.7398
0.9601
0.9925
0.9989
0.9998
1
1
1
1
1
1
1
1
1
1
1
1
1
1
1
1
1
1
1
1
1
1
1
1
1
1
1
1
1
1
1
1
1
1
1
1
1
1
1
1
1
1
1
1
1
0.9999
0.9999
0.9999
1
1
1
1
1
1
1
1
1
1
1
1
1
1
1
1
1
1
1
1
1
1
1
1
1
1
1
1
1
1
1
1
1
1
1
1
1
1
1
1
1
6.021e-06
5.028e-06
7.72e-06
4.379e-06
7.143e-06
5.874e-06
3.949e-06
7.999e-06
1.724e-05
1.588e-05
2.18e-05
4.149e-05
6.319e-05
8.706e-05
0.000102
5.525e-05
1.521e-05
4.853e-06
2.335e-06
2.001e-06
6.416e-06
2.907e-05
0.0001389
0.0003587
0.0006372
0.0007051
0.00139
0.001414
0.00181
0.002081
0.00295
0.004491
0.007243
0.005225
0.002034
0.0007068
0.0004146
0.0008695
0.0008562
0.0008549
0.0003537
8.608e-05
1.414e-05
1.097e-05
6.314e-06
2.654e-05
0.0001198
0.0009231
0.001348
0.0008063
0.0001202
3.309e-05
2.829e-05
4.371e-05
8.021e-05
5.566e-05
3.947e-05
3.19e-05
3.603e-05
6.688e-05
0.0001912
0.0007041
0.005188
0.09577
0.7744
0.9614
0.9947
0.9994
0.9999
1
1
1
1
1
1
1
1
1
1
1
1
1
1
1
1
1
1
1
1
1
1
1
1
1
1
1
1
1
1
1
1
1
1
1
1
1
1
1
1
1
1
1
1
1
1
1
1
1
1
1
1
1
1
1
1
1
1
1
1
1
1
1
1
1
1
1
1
1
1
1
1
1
1
1
1
1
1
1
1
1
1
1
1
1
1
1
1
1
1
1
1.597e-05
1.48e-05
2.83e-05
7.862e-06
6.188e-06
4.597e-06
6.56e-06
2.772e-05
7.534e-05
3.987e-05
2.536e-05
1.815e-05
1.494e-05
5.407e-05
3.89e-05
5.757e-06
8.734e-07
1.454e-07
6.098e-08
5.359e-08
3.164e-07
4.254e-06
4.328e-05
0.0002128
0.0006885
0.0007057
0.001139
0.001338
0.00125
0.001281
0.002056
0.00451
0.009948
0.0103
0.004065
0.001166
0.0006797
0.001104
0.001634
0.002858
0.003233
0.001745
0.0006876
0.0006898
0.0004297
0.0004322
0.0006103
0.001607
0.003336
0.005143
0.003136
0.001112
0.0006322
0.0002439
0.0001797
7.17e-05
5.49e-05
6.408e-05
0.000236
0.0007862
0.00907
0.09662
0.7342
0.9563
0.9947
0.9992
0.9999
1
1
1
1
1
1
1
1
1
1
1
1
1
1
1
1
1
1
1
1
1
1
1
1
1
1
1
1
1
1
1
1
1
1
1
1
1
1
1
1
1
1
1
1
1
1
1
1
1
1
1
1
1
1
1
1
1
1
1
1
1
1
1
1
1
1
1
1
1
1
1
1
1
1
1
1
1
1
1
1
1
1
1
1
1
1
1
1
1
1
1
1
1
3.099e-05
3.317e-05
0.0001091
2.75e-05
7.056e-06
3.651e-06
9.202e-06
4.273e-05
0.0001238
6.996e-05
2.44e-05
1.406e-05
1.791e-05
8.982e-05
1.72e-05
8.95e-07
1.141e-07
2.15e-08
1.564e-08
1.524e-08
1.222e-07
1.909e-06
2.6e-05
0.0001938
0.001301
0.001034
0.001824
0.001996
0.001206
0.000889
0.001064
0.002656
0.006933
0.00876
0.004411
0.00196
0.001864
0.002485
0.004424
0.006783
0.009186
0.008207
0.006997
0.005087
0.0027
0.001303
0.0009738
0.001491
0.003281
0.005432
0.003696
0.001529
0.0008489
0.0003482
0.0003227
0.0002181
0.0003388
0.001074
0.008401
0.07928
0.7205
0.9473
0.9943
0.9994
1
1
1
1
1
1
1
1
1
1
1
1
1
1
1
1
1
1
1
1
1
1
1
1
1
1
1
1
1
1
1
1
1
1
1
1
1
1
1
1
1
1
1
1
1
1
1
1
1
1
1
1
1
1
1
1
1
1
1
1
1
1
1
1
1
1
1
1
1
1
1
1
1
1
1
1
1
1
1
1
1
1
1
1
1
1
1
1
1
1
1
1
1
1
1
1
4.644e-05
6.086e-05
0.0001571
4.677e-05
9.109e-06
1.074e-05
2.558e-05
0.0001387
0.0002032
9.424e-05
2.243e-05
1.022e-05
1.381e-05
4.999e-05
3.089e-06
2.299e-07
6.265e-08
3.362e-08
5.151e-08
5.769e-08
3.327e-07
2.501e-06
3.713e-05
0.0002377
0.001733
0.001377
0.002184
0.002679
0.002056
0.001837
0.001843
0.003294
0.00749
0.00872
0.004961
0.003272
0.004294
0.005347
0.007027
0.007793
0.01086
0.01306
0.0221
0.0189
0.009903
0.003142
0.001163
0.0008033
0.001271
0.0023
0.001998
0.00145
0.001329
0.0009416
0.001162
0.002665
0.01209
0.06692
0.6918
0.9478
0.9924
0.9992
1
1
1
1
1
1
1
1
1
1
1
1
1
1
1
1
1
1
1
1
1
1
1
1
1
1
1
1
1
1
1
1
1
1
1
1
1
1
1
1
1
1
1
1
1
1
1
1
1
1
1
1
1
1
1
1
1
1
1
1
1
1
1
1
1
1
1
1
1
1
1
1
1
1
1
1
1
1
1
1
1
1
1
1
1
1
1
1
1
1
1
1
1
1
1
1
1
1
3.765e-05
6.089e-05
0.0001115
3.841e-05
6.717e-06
1.665e-05
7.06e-05
0.000556
0.0005766
0.0002181
4.665e-05
1.493e-05
1.05e-05
2.063e-05
1.247e-06
1.68e-07
2.196e-07
4.624e-07
1.13e-06
1.292e-06
4.189e-06
1.479e-05
0.0001727
0.00091
0.00505
0.003631
0.004704
0.004376
0.003123
0.002199
0.002354
0.004005
0.00914
0.01173
0.007831
0.006282
0.009637
0.01279
0.01215
0.007329
0.005616
0.004906
0.008626
0.009936
0.006859
0.003011
0.001654
0.0006133
0.0004282
0.0005716
0.0005394
0.0007908
0.002013
0.003631
0.008916
0.05029
0.5574
0.9143
0.9909
0.9991
0.9999
1
1
1
1
1
1
1
1
1
1
1
1
1
1
1
1
1
1
1
1
1
1
1
1
1
1
1
1
1
1
1
1
1
1
1
1
1
1
1
1
1
1
1
1
1
1
1
1
1
1
1
1
1
1
1
1
1
1
1
1
1
1
1
1
1
1
1
1
1
1
1
1
1
1
1
1
1
1
1
1
1
1
1
1
1
1
1
1
1
1
1
1
1
1
1
1
1
1
1
5.496e-05
6.577e-05
8.903e-05
4.098e-05
9.09e-06
4.994e-05
0.0001961
0.0011
0.001037
0.0005427
0.0001452
5.809e-05
2.941e-05
2.952e-05
2.932e-06
9.556e-07
3.499e-06
1.191e-05
3.003e-05
3.175e-05
7.339e-05
0.0001416
0.0005709
0.001977
0.005308
0.004489
0.004541
0.004571
0.003767
0.002865
0.003036
0.005442
0.01342
0.02008
0.01476
0.01061
0.01127
0.009912
0.006664
0.003137
0.00142
0.00109
0.001626
0.003148
0.004606
0.0044
0.00345
0.001036
0.0005347
0.0003875
0.0005204
0.0009822
0.006141
0.02015
0.2303
0.8615
0.9817
0.9978
0.9999
1
1
1
1
1
1
1
1
1
1
1
1
1
1
1
1
1
1
1
1
1
1
1
1
1
1
1
1
1
1
1
1
1
1
1
1
1
1
1
1
1
1
1
1
1
1
1
1
1
1
1
1
1
1
1
1
1
1
1
1
1
1
1
1
1
1
1
1
1
1
1
1
1
1
1
1
1
1
1
1
1
1
1
1
1
1
1
1
1
1
1
1
1
1
1
1
1
1
1
1
1
0.0001171
0.0001183
0.0001503
5.1e-05
1.594e-05
7.138e-05
0.0001694
0.0008759
0.001045
0.0008701
0.0002701
0.0002278
0.0001649
0.0001333
2.591e-05
1.25e-05
3.215e-05
6.988e-05
0.0001366
0.0002686
0.0005283
0.0007098
0.001316
0.00182
0.001916
0.002499
0.004307
0.003446
0.002602
0.001713
0.001222
0.001903
0.006466
0.01488
0.01591
0.01199
0.009765
0.008505
0.005747
0.003093
0.001121
0.0005954
0.0006005
0.001016
0.00186
0.003111
0.004174
0.00169
0.001465
0.001054
0.002088
0.005082
0.06808
0.6117
0.9519
0.9959
0.9997
1
1
1
1
1
1
1
1
1
1
1
1
1
1
1
1
1
1
1
1
1
1
1
1
1
1
1
1
1
1
0.9999
0.9999
0.9999
0.9999
1
1
1
1
1
1
1
1
1
1
1
1
1
1
1
1
1
1
1
1
1
1
1
1
1
1
1
1
1
1
1
1
1
1
1
1
1
1
1
1
1
1
1
1
1
1
1
1
1
1
1
1
1
1
1
1
1
1
1
1
1
1
1
1
1
1
1
1
1
0.0002627
0.0002274
0.0002432
6.295e-05
2.944e-05
6.971e-05
7.328e-05
0.0003693
0.000756
0.001003
0.0004761
0.0008851
0.0005252
0.0005013
0.0002087
0.0001814
0.0002781
0.0003229
0.0002645
0.0004865
0.001129
0.001256
0.001757
0.001428
0.00109
0.001867
0.005703
0.005568
0.003905
0.002375
0.001091
0.001156
0.002816
0.008964
0.01695
0.01843
0.01631
0.01177
0.007367
0.004463
0.001924
0.0008314
0.0005832
0.0007576
0.0009012
0.001821
0.003639
0.003006
0.005897
0.01216
0.05446
0.476
0.9337
0.9927
0.9996
1
1
1
1
1
1
1
1
1
1
1
1
1
1
1
1
1
1
1
1
1
1
1
1
1
1
0.9999
0.9997
0.9988
0.9937
0.9914
0.9872
0.9817
0.9812
0.9789
0.9794
0.9863
0.9894
0.9916
0.9942
0.9967
0.9988
0.9997
0.9999
1
1
1
1
1
1
1
1
1
1
1
1
1
1
1
1
1
1
1
1
1
1
1
1
1
1
1
1
1
1
1
1
1
1
1
1
1
1
1
1
1
1
1
1
1
1
1
1
1
1
1
1
1
1
1
1
1
1
1
1
1
0.0005071
0.0003849
0.0004614
9.929e-05
6.014e-05
3.196e-05
1.627e-05
7.957e-05
0.0004136
0.001076
0.00143
0.002824
0.001695
0.001951
0.00123
0.001266
0.0008308
0.0006607
0.000306
0.0004896
0.0008118
0.0008551
0.001452
0.001109
0.001733
0.003693
0.01273
0.01212
0.008608
0.003999
0.00155
0.0009607
0.001426
0.00512
0.01481
0.02757
0.03046
0.0171
0.009562
0.006316
0.003274
0.001781
0.001278
0.001073
0.001098
0.001966
0.004889
0.01011
0.03916
0.2114
0.8005
0.9735
0.9986
0.9999
1
1
1
1
1
1
1
1
1
1
1
1
1
1
1
1
1
1
1
1
1
1
1
1
0.9999
0.9991
0.9943
0.9744
0.9296
0.8276
0.5591
0.3153
0.148
0.09072
0.05401
0.03468
0.03074
0.03249
0.0575
0.147
0.4031
0.6145
0.8515
0.9555
0.9878
0.9958
0.9988
0.9996
0.9999
1
1
1
1
1
1
1
1
1
1
1
1
1
1
1
1
1
1
1
1
1
1
1
1
1
1
1
1
1
1
1
1
1
1
1
1
1
1
1
1
1
1
1
1
1
1
1
1
1
1
1
1
1
1
1
1
1
0.000426
0.0003534
0.000432
9.832e-05
0.0001249
3.272e-05
1.606e-05
4.677e-05
0.0003059
0.0006485
0.00159
0.002944
0.002313
0.003104
0.002743
0.003606
0.002378
0.001429
0.0008451
0.0006099
0.0007614
0.0007151
0.001062
0.000938
0.001408
0.002255
0.007277
0.009582
0.01076
0.007238
0.002554
0.0008113
0.0005616
0.001193
0.004535
0.01388
0.02135
0.01174
0.006409
0.004959
0.004643
0.004189
0.004019
0.003233
0.003371
0.007357
0.0249
0.1161
0.682
0.9431
0.9944
0.9996
1
1
1
1
1
1
1
1
1
1
1
1
1
1
1
1
1
1
1
1
1
1
1
0.9999
0.9991
0.9929
0.9592
0.8229
0.5492
0.1977
0.06346
0.02187
0.006883
0.002199
0.001108
0.001258
0.0008907
0.0007263
0.0005936
0.0005453
0.001114
0.003316
0.00856
0.01766
0.04133
0.07788
0.1899
0.4518
0.6995
0.8949
0.9813
0.9966
0.9993
0.9999
1
1
1
1
1
1
1
1
1
1
1
1
1
1
1
1
1
1
1
1
1
1
1
1
1
1
1
1
1
1
1
1
1
1
1
1
1
1
1
1
1
1
1
1
1
1
1
1
1
1
1
0.9997
0.9981
0.992
0.0003618
0.0004245
0.0007204
0.0001413
0.0002075
2.817e-05
1.494e-05
2.723e-05
0.0003985
0.0006239
0.00168
0.001875
0.001963
0.00273
0.002217
0.002645
0.002713
0.002362
0.001837
0.0007867
0.0004066
0.0002476
0.0004922
0.0009691
0.001912
0.001853
0.003941
0.005621
0.006375
0.00461
0.002014
0.0005573
0.0003165
0.0006862
0.00262
0.00978
0.01821
0.01275
0.007005
0.006213
0.008073
0.008711
0.009434
0.008672
0.01171
0.029
0.1653
0.7508
0.9693
0.9973
0.9998
1
1
1
1
1
1
1
1
1
1
1
1
1
1
1
1
1
1
1
1
1
1
0.9998
0.9969
0.9769
0.8653
0.5654
0.11
0.02802
0.006617
0.002589
0.0008364
0.00029
0.0001014
5.401e-05
2.623e-05
5.008e-05
6.577e-05
5.69e-05
5.02e-05
5.215e-05
0.0001334
0.0004471
0.0009443
0.001438
0.002057
0.002347
0.003506
0.008749
0.01964
0.05208
0.1682
0.6222
0.8673
0.9679
0.9937
0.9984
0.9997
0.9998
1
1
1
1
1
1
1
1
1
1
1
1
1
1
1
1
1
1
1
1
1
1
1
1
1
1
1
1
1
1
1
1
1
1
1
1
1
1
1
1
1
1
1
0.9999
0.9992
0.995
0.9755
0.8882
0.7175
0.5553
0.0004152
0.0005927
0.001384
0.0002331
0.0002554
2.88e-05
2.312e-05
4.78e-05
0.0003781
0.0005399
0.001382
0.001642
0.002783
0.003429
0.001636
0.001652
0.002732
0.004765
0.003572
0.0008166
0.0001436
6.704e-05
0.0001837
0.0006941
0.002173
0.002119
0.002494
0.003712
0.004359
0.002978
0.001566
0.0004903
0.0002843
0.0006393
0.001843
0.006275
0.01022
0.007438
0.004901
0.005569
0.009667
0.01318
0.01713
0.02029
0.04493
0.3854
0.8857
0.9897
0.9995
1
1
1
1
1
1
1
1
1
1
1
1
1
1
1
1
1
1
1
1
1
1
0.9997
0.9969
0.9711
0.7916
0.1763
0.0246
0.007776
0.00204
0.0008034
0.0003307
0.0002186
7.008e-05
2.45e-05
6.311e-06
7.728e-06
6.694e-06
2.049e-05
3.313e-05
4.824e-05
4.336e-05
3.772e-05
5.692e-05
0.0001283
0.0001815
0.0002077
0.0002003
0.0001591
0.000162
0.0003074
0.0005757
0.001105
0.004146
0.01944
0.04135
0.1347
0.5321
0.773
0.9266
0.9831
0.9987
1
1
1
1
1
1
1
1
1
1
1
1
1
1
1
1
1
1
1
1
1
1
1
1
1
1
1
1
1
1
1
1
1
1
1
1
1
1
0.9999
0.9994
0.996
0.9817
0.9155
0.6854
0.2607
0.09405
0.03213
0.01456
0.004258
0.0002447
0.0003712
0.00136
0.0002775
0.0002758
4.193e-05
3.387e-05
7.725e-05
0.0006324
0.0006907
0.0009524
0.001275
0.003567
0.004903
0.001363
0.0007241
0.0007706
0.002107
0.00245
0.0009635
0.0001085
4.866e-05
9.555e-05
0.0005573
0.00205
0.002251
0.002142
0.002811
0.002393
0.00146
0.0008439
0.0005036
0.0004585
0.001494
0.003276
0.006176
0.005988
0.003954
0.001978
0.001874
0.003076
0.005763
0.01603
0.06338
0.4901
0.9289
0.9934
0.9997
1
1
1
1
1
1
1
1
1
1
1
1
1
1
1
1
1
1
1
1
1
0.9997
0.9945
0.9564
0.641
0.09145
0.01633
0.004386
0.001543
0.0007652
0.0002951
0.000214
0.0001313
0.0001184
4.009e-05
2.672e-05
1.473e-05
2.232e-05
2.23e-05
7.15e-05
0.0001208
0.000195
0.0001636
0.0001135
0.0001296
0.0001322
0.0001208
0.0001199
9.735e-05
5.76e-05
3.373e-05
3.622e-05
3.692e-05
4.592e-05
0.0001361
0.0004473
0.001011
0.004005
0.02492
0.07439
0.3419
0.869
0.9914
0.9999
1
1
1
1
1
1
1
1
1
1
1
1
1
1
1
1
1
1
1
1
1
1
1
1
1
1
1
1
1
1
1
1
0.9999
0.9996
0.9985
0.9944
0.9809
0.9278
0.7867
0.3637
0.1143
0.03289
0.0115
0.003484
0.001105
0.0003678
0.0001324
1.259e-05
9.014e-05
0.0001408
0.0008325
0.0002541
0.0002623
0.0001033
8.579e-05
0.0001757
0.001667
0.001117
0.0007322
0.001182
0.003999
0.00606
0.001707
0.000636