/*--------------------------------*- C++ -*----------------------------------*\
| =========                 |                                                 |
| \\      /  F ield         | OpenFOAM: The Open Source CFD Toolbox           |
|  \\    /   O peration     | Version:  5.x                                   |
|   \\  /    A nd           | Web:      www.OpenFOAM.org                      |
|    \\/     M anipulation  |                                                 |
\*---------------------------------------------------------------------------*/
FoamFile
{
    version     2.0;
    format      ascii;
    class       volScalarField;
    location    "75";
    object      gamma;
}
// * * * * * * * * * * * * * * * * * * * * * * * * * * * * * * * * * * * * * //

dimensions      [0 0 0 0 0 0 0];

internalField   nonuniform List<scalar> 
86400
(
0.0004358
0.0004881
0.0006041
0.0008276
0.001215
0.001718
0.002264
0.003095
0.00474
0.007343
0.01199
0.01906
0.03064
0.04334
0.05755
0.06457
0.06645
0.05615
0.04681
0.03979
0.03345
0.0277
0.02416
0.02106
0.01994
0.02295
0.02407
0.0247
0.02361
0.02297
0.02233
0.02328
0.02441
0.02546
0.02667
0.02868
0.02766
0.02503
0.02053
0.01816
0.01642
0.01658
0.01588
0.01454
0.01439
0.01529
0.01746
0.01894
0.01991
0.01919
0.01908
0.01925
0.01938
0.01923
0.01887
0.01926
0.01992
0.0202
0.02007
0.01958
0.01816
0.01787
0.01702
0.01716
0.01883
0.02144
0.02385
0.02496
0.02267
0.02109
0.02162
0.02286
0.02447
0.02221
0.02026
0.01806
0.01611
0.01618
0.01837
0.02088
0.02543
0.02796
0.02738
0.02598
0.02543
0.02408
0.02472
0.02464
0.02533
0.02608
0.0256
0.02818
0.03214
0.03964
0.04451
0.04754
0.04456
0.04331
0.04269
0.04218
0.04169
0.04277
0.03994
0.0353
0.02756
0.02625
0.02879
0.03956
0.04861
0.05561
0.05355
0.05184
0.04833
0.04352
0.03722
0.03355
0.03189
0.03121
0.02971
0.0278
0.02624
0.02521
0.02536
0.02522
0.02507
0.02507
0.02481
0.02445
0.024
0.02337
0.02247
0.02358
0.02533
0.0277
0.03009
0.03256
0.03426
0.03587
0.0279
0.01821
0.01298
0.01343
0.01664
0.02174
0.0211
0.01718
0.01489
0.01602
0.01758
0.01795
0.01682
0.01672
0.01938
0.01958
0.01927
0.01949
0.02144
0.03653
0.8004
0.9905
0.0005152
0.0005332
0.000629
0.0008081
0.001217
0.001884
0.002788
0.004286
0.007026
0.01101
0.01849
0.02872
0.0427
0.05658
0.07234
0.08157
0.08578
0.07771
0.06917
0.06121
0.0552
0.05125
0.04769
0.04295
0.04009
0.03909
0.03702
0.03463
0.03262
0.03122
0.03048
0.03181
0.0336
0.03538
0.03717
0.03965
0.03927
0.03735
0.03366
0.03118
0.02853
0.02779
0.02656
0.02453
0.02359
0.02429
0.02551
0.02671
0.02777
0.02768
0.0284
0.02949
0.03045
0.03088
0.03019
0.02803
0.02548
0.02327
0.02148
0.02068
0.02007
0.02045
0.01986
0.02045
0.02265
0.02734
0.03051
0.03205
0.02965
0.02834
0.0291
0.02923
0.02817
0.02454
0.02223
0.02168
0.02421
0.0283
0.03274
0.035
0.03937
0.04208
0.04426
0.04559
0.04691
0.0461
0.04758
0.04722
0.04859
0.05058
0.05106
0.0549
0.05912
0.06319
0.06517
0.0656
0.06163
0.05947
0.05786
0.05806
0.05947
0.06398
0.06542
0.0612
0.05078
0.04739
0.05004
0.06039
0.07359
0.08382
0.08237
0.08114
0.0794
0.07636
0.07165
0.06807
0.06626
0.06505
0.06162
0.05632
0.05248
0.04986
0.04959
0.04942
0.04922
0.04929
0.04856
0.04757
0.04633
0.04498
0.04335
0.04549
0.04891
0.05493
0.06003
0.06244
0.06154
0.05942
0.04757
0.03421
0.02927
0.02976
0.0323
0.03775
0.03884
0.03481
0.03269
0.0357
0.03989
0.03896
0.03489
0.03281
0.03621
0.04087
0.05139
0.07024
0.1053
0.2343
0.7802
0.9596
0.0006895
0.0006849
0.0007622
0.0009537
0.001509
0.002532
0.004082
0.006883
0.01146
0.01819
0.02949
0.04458
0.06624
0.09006
0.1132
0.1231
0.1239
0.1081
0.09525
0.0842
0.07566
0.07126
0.06869
0.06293
0.06223
0.06506
0.06451
0.06223
0.06008
0.05637
0.05574
0.05884
0.05972
0.05838
0.05566
0.05383
0.05107
0.04898
0.04563
0.04388
0.04178
0.04129
0.03907
0.03698
0.03571
0.03666
0.03792
0.03939
0.04114
0.03848
0.03479
0.03094
0.02784
0.02606
0.02594
0.02394
0.02198
0.02014
0.01939
0.01948
0.02046
0.02219
0.02295
0.0255
0.02812
0.03131
0.03381
0.03504
0.03283
0.03129
0.03121
0.02931
0.0276
0.02664
0.02801
0.03444
0.04472
0.05479
0.06204
0.06541
0.06955
0.07195
0.07508
0.07872
0.08415
0.08429
0.08669
0.0862
0.08279
0.07759
0.0698
0.06468
0.06567
0.07265
0.07982
0.08582
0.08697
0.08375
0.08133
0.08205
0.08458
0.09142
0.09758
0.0958
0.08562
0.08314
0.08979
0.1055
0.1277
0.1408
0.1411
0.143
0.1444
0.143
0.1379
0.1333
0.1263
0.1183
0.1065
0.09482
0.08641
0.08291
0.0822
0.08206
0.08188
0.08213
0.081
0.07934
0.07671
0.07461
0.07242
0.0755
0.08031
0.0874
0.09558
0.09909
0.09772
0.09383
0.08175
0.06778
0.06263
0.06321
0.06695
0.07351
0.0756
0.06912
0.06425
0.06561
0.07076
0.06904
0.06722
0.06641
0.08272
0.1102
0.1774
0.3289
0.5453
0.7417
0.8924
0.959
0.001054
0.001027
0.001141
0.001475
0.002479
0.004405
0.007364
0.01259
0.02071
0.03253
0.05019
0.05428
0.06124
0.06778
0.08363
0.09467
0.1131
0.07848
0.051
0.03475
0.02715
0.02426
0.02775
0.0306
0.0353
0.04403
0.05301
0.05954
0.06774
0.07086
0.07277
0.08022
0.08275
0.08089
0.07484
0.06904
0.06418
0.06348
0.06249
0.06463
0.06698
0.07096
0.07343
0.07415
0.06505
0.05519
0.04529
0.03839
0.03555
0.03214
0.02744
0.02412
0.02275
0.02143
0.02141
0.01877
0.01576
0.01414
0.01516
0.01744
0.02082
0.02519
0.02878
0.03257
0.03557
0.03784
0.03825
0.03758
0.03468
0.03649
0.03981
0.03887
0.04007
0.04342
0.04649
0.06201
0.08357
0.09844
0.1019
0.1049
0.1028
0.1016
0.106
0.1111
0.1162
0.1187
0.1209
0.1207
0.1195
0.1191
0.1157
0.109
0.1114
0.1218
0.1338
0.1458
0.1557
0.15
0.145
0.1462
0.1514
0.1657
0.1868
0.1971
0.1912
0.1839
0.1878
0.204
0.2235
0.2326
0.229
0.2263
0.2269
0.2372
0.243
0.2489
0.2406
0.2263
0.2019
0.1794
0.1616
0.1571
0.1555
0.1556
0.1556
0.1564
0.1548
0.1522
0.1488
0.1455
0.1427
0.1482
0.1577
0.1605
0.1605
0.1499
0.1363
0.1228
0.1203
0.1181
0.1204
0.121
0.1234
0.1269
0.1341
0.1348
0.135
0.1394
0.1558
0.1627
0.1816
0.2078
0.2876
0.44
0.6382
0.7901
0.8843
0.9432
0.9761
0.9897
0.001849
0.001945
0.002298
0.003211
0.005543
0.009688
0.01474
0.0236
0.03523
0.04692
0.05885
0.04077
0.02925
0.02749
0.03808
0.0471
0.0713
0.04061
0.02083
0.01209
0.01016
0.01007
0.01314
0.01348
0.01668
0.02594
0.04463
0.0712
0.1005
0.09728
0.0801
0.06972
0.05931
0.05252
0.04946
0.04555
0.04061
0.04448
0.05383
0.06929
0.07471
0.06813
0.05073
0.03863
0.02723
0.02043
0.01735
0.01757
0.02092
0.02432
0.02366
0.02036
0.02128
0.02206
0.02262
0.0188
0.01442
0.01289
0.01453
0.01881
0.02592
0.03559
0.04655
0.05435
0.05479
0.04864
0.04443
0.03873
0.03289
0.032
0.03471
0.03485
0.04243
0.05649
0.06927
0.08589
0.1068
0.1128
0.1114
0.1203
0.1177
0.1127
0.1155
0.1227
0.1332
0.1457
0.1542
0.1547
0.1574
0.1616
0.1563
0.1525
0.1646
0.1887
0.2289
0.2628
0.2886
0.2798
0.272
0.2581
0.2396
0.2366
0.2608
0.2896
0.3158
0.3373
0.3512
0.3698
0.3796
0.3689
0.3358
0.313
0.2992
0.3128
0.3008
0.2828
0.2472
0.2187
0.1884
0.1774
0.168
0.1678
0.166
0.1658
0.1659
0.1671
0.167
0.1664
0.1652
0.1642
0.1639
0.1671
0.1735
0.1661
0.158
0.1444
0.1349
0.1307
0.1396
0.1462
0.1557
0.1627
0.1697
0.1815
0.2023
0.213
0.2231
0.2345
0.2791
0.3325
0.4405
0.5467
0.6569
0.7649
0.8644
0.9278
0.9638
0.9824
0.9916
0.9957
0.00299
0.003596
0.004779
0.007625
0.01342
0.02084
0.02739
0.03671
0.04662
0.0507
0.05322
0.02705
0.01256
0.008374
0.01347
0.01892
0.0338
0.02087
0.01056
0.006153
0.006497
0.00721
0.00972
0.008098
0.007977
0.009895
0.01475
0.0267
0.04545
0.0459
0.0356
0.02804
0.02303
0.02117
0.0238
0.0242
0.01924
0.01824
0.02041
0.0206
0.01637
0.01232
0.006795
0.003998
0.002524
0.001495
0.000963
0.001099
0.001864
0.003512
0.005596
0.007661
0.01064
0.01578
0.01914
0.01562
0.01009
0.007517
0.007503
0.01024
0.01632
0.02667
0.03804
0.0494
0.05186
0.04488
0.04482
0.04098
0.03554
0.03473
0.04004
0.04196
0.05547
0.07689
0.0909
0.1024
0.1138
0.1197
0.1281
0.1525
0.1638
0.1666
0.1711
0.1843
0.2027
0.2251
0.2429
0.2468
0.2593
0.2797
0.3002
0.2961
0.3136
0.3434
0.3877
0.4333
0.4602
0.4602
0.4661
0.4535
0.4258
0.4061
0.4174
0.4451
0.4833
0.5059
0.5002
0.5007
0.486
0.4405
0.348
0.277
0.2332
0.2353
0.23
0.2181
0.1917
0.1704
0.1531
0.1509
0.1464
0.1469
0.1457
0.1456
0.1464
0.1484
0.1514
0.1553
0.1593
0.1633
0.1672
0.1736
0.1862
0.1837
0.1804
0.1673
0.1662
0.1707
0.1911
0.2057
0.2212
0.2362
0.2551
0.2849
0.334
0.3774
0.4245
0.4781
0.5489
0.6251
0.7121
0.7834
0.8466
0.9012
0.9441
0.9705
0.9849
0.9919
0.9954
0.9973
0.004763
0.006319
0.009145
0.01506
0.02534
0.03544
0.04239
0.04951
0.05686
0.04912
0.04017
0.01678
0.005233
0.003324
0.004809
0.008551
0.0196
0.0198
0.01276
0.009715
0.01314
0.01458
0.01788
0.01243
0.009319
0.009076
0.01104
0.01556
0.02464
0.02423
0.01915
0.01324
0.01131
0.01215
0.01587
0.01713
0.01193
0.009435
0.01002
0.008115
0.004367
0.002134
0.0007225
0.0002959
0.0001745
8.143e-05
5.451e-05
9.001e-05
0.000296
0.001087
0.00323
0.006642
0.0129
0.02666
0.03741
0.03252
0.01788
0.0099
0.006997
0.007269
0.01066
0.01986
0.03489
0.05932
0.07293
0.06254
0.0633
0.05776
0.05106
0.04604
0.05407
0.05627
0.08475
0.1255
0.1541
0.1672
0.1771
0.1843
0.1987
0.2386
0.2677
0.2848
0.3067
0.3418
0.3975
0.4387
0.4644
0.4672
0.4911
0.5197
0.5322
0.5282
0.5313
0.5396
0.5591
0.5805
0.5867
0.5832
0.5887
0.5796
0.5598
0.5307
0.5279
0.5563
0.5977
0.6199
0.6177
0.6103
0.5836
0.514
0.3958
0.2744
0.2095
0.2015
0.2029
0.1963
0.1736
0.1593
0.1512
0.1581
0.1602
0.1631
0.1637
0.1646
0.1673
0.1716
0.1776
0.1847
0.1926
0.2004
0.2088
0.2217
0.2446
0.254
0.2662
0.2843
0.3115
0.3476
0.4061
0.4425
0.4701
0.4997
0.5329
0.5722
0.6184
0.658
0.6969
0.7368
0.7788
0.8208
0.8619
0.8986
0.9313
0.9575
0.9758
0.9867
0.9921
0.9949
0.9966
0.9976
0.008854
0.01185
0.01697
0.0268
0.04174
0.05271
0.0597
0.06445
0.06028
0.03787
0.02398
0.008795
0.002448
0.001806
0.002922
0.006563
0.01885
0.02925
0.02565
0.02743
0.03391
0.03684
0.04186
0.03075
0.02179
0.01399
0.01026
0.0101
0.0131
0.01364
0.01245
0.01078
0.009762
0.01169
0.01659
0.01958
0.01395
0.0109
0.009913
0.004474
0.001419
0.0003769
9.909e-05
3.807e-05
3.438e-05
2.069e-05
1.902e-05
4.597e-05
0.0001923
0.001458
0.009509
0.03954
0.1467
0.4707
0.6133
0.5285
0.1947
0.04783
0.01342
0.007496
0.00868
0.01751
0.03765
0.08411
0.1181
0.1096
0.1081
0.09839
0.08869
0.08712
0.1054
0.1163
0.1629
0.2307
0.286
0.3158
0.3387
0.3873
0.4342
0.5
0.5346
0.5527
0.5704
0.5931
0.6209
0.6434
0.6528
0.6447
0.6613
0.6883
0.7086
0.7214
0.7183
0.7078
0.7038
0.7019
0.6927
0.6876
0.6904
0.6907
0.688
0.6822
0.6791
0.6832
0.6984
0.7039
0.6959
0.6846
0.6597
0.5915
0.4758
0.3132
0.2315
0.2219
0.2391
0.2494
0.2539
0.2536
0.2608
0.2875
0.3017
0.3075
0.3122
0.3193
0.3308
0.3462
0.3653
0.3859
0.4057
0.4248
0.4443
0.4695
0.5042
0.53
0.5564
0.5856
0.6144
0.6426
0.6738
0.6956
0.7143
0.7348
0.7563
0.7802
0.8066
0.8339
0.8605
0.8849
0.9055
0.9224
0.9388
0.9554
0.9704
0.9818
0.9892
0.9931
0.9952
0.9965
0.9973
0.9977
0.01716
0.02204
0.0284
0.04081
0.0576
0.06843
0.07652
0.06789
0.04582
0.02145
0.009667
0.004144
0.001958
0.002163
0.004115
0.008203
0.01208
0.01297
0.01067
0.0124
0.02215
0.04258
0.07095
0.07733
0.06834
0.04038
0.02188
0.01399
0.01313
0.01358
0.01461
0.01274
0.01007
0.01107
0.01411
0.01681
0.01345
0.01113
0.01081
0.002948
0.0005602
9.338e-05
2.06e-05
1.01e-05
2.009e-05
2.303e-05
3.84e-05
0.0001658
0.001258
0.01473
0.2018
0.7294
0.903
0.9573
0.9677
0.9487
0.8496
0.4239
0.04915
0.01452
0.01297
0.02483
0.059
0.1399
0.2057
0.1936
0.1893
0.1876
0.1772
0.187
0.2178
0.2399
0.3082
0.4195
0.5182
0.5944
0.6419
0.6885
0.7173
0.7415
0.7582
0.7682
0.7759
0.7848
0.7953
0.8017
0.803
0.7968
0.7976
0.8008
0.8011
0.801
0.7972
0.7935
0.7937
0.7922
0.7818
0.7696
0.7652
0.7647
0.7698
0.7704
0.7673
0.7659
0.7705
0.7726
0.7709
0.7655
0.7501
0.7016
0.6235
0.5175
0.4432
0.4287
0.4618
0.4865
0.505
0.5137
0.5277
0.5494
0.5614
0.5685
0.5758
0.5855
0.5981
0.6128
0.6296
0.6465
0.6624
0.6775
0.6921
0.7084
0.7281
0.7514
0.7761
0.8005
0.8206
0.8371
0.8502
0.8615
0.8721
0.8831
0.8935
0.9044
0.9156
0.9268
0.9373
0.9469
0.9548
0.961
0.9696
0.9787
0.9864
0.9917
0.9946
0.9959
0.9967
0.9974
0.9978
0.9977
0.02987
0.03492
0.04279
0.05929
0.07699
0.08329
0.07205
0.04418
0.02082
0.009134
0.004123
0.002873
0.00252
0.004133
0.008467
0.01196
0.008759
0.004364
0.002291
0.002226
0.004719
0.01404
0.0395
0.07151
0.07979
0.05146
0.02656
0.01617
0.01341
0.01639
0.01961
0.01614
0.01034
0.008778
0.008369
0.0108
0.01309
0.01438
0.01264
0.002629
0.0003773
5.011e-05
1.269e-05
9.066e-06
2.888e-05
6.429e-05
0.0001674
0.001074
0.01194
0.2486
0.8868
0.9767
0.9932
0.9969
0.9968
0.9923
0.9644
0.7891
0.1682
0.03602
0.0262
0.04571
0.09537
0.2103
0.3099
0.3161
0.3144
0.3355
0.3625
0.4427
0.5159
0.5693
0.6204
0.6812
0.7311
0.7727
0.7979
0.8192
0.8313
0.841
0.8483
0.8524
0.8531
0.8522
0.8527
0.8531
0.8509
0.8464
0.8454
0.8478
0.8516
0.8556
0.8575
0.8566
0.8558
0.8506
0.8394
0.8281
0.8216
0.8233
0.8319
0.8366
0.8352
0.8304
0.8246
0.8206
0.8187
0.815
0.8058
0.7784
0.7345
0.6844
0.6518
0.6474
0.6751
0.7029
0.7274
0.7434
0.7559
0.764
0.7702
0.7755
0.7815
0.7889
0.7976
0.807
0.8171
0.8269
0.8356
0.8443
0.8528
0.8618
0.8711
0.8807
0.8898
0.8988
0.9069
0.9145
0.9216
0.9281
0.9342
0.94
0.9453
0.9506
0.9559
0.9612
0.966
0.9703
0.9737
0.9762
0.9821
0.9882
0.9929
0.9954
0.9967
0.9971
0.9974
0.9977
0.9977
0.9971
0.04295
0.04793
0.05734
0.07816
0.09071
0.08756
0.0511
0.0214
0.00802
0.003896
0.002404
0.002837
0.004447
0.009419
0.013
0.01257
0.004774
0.00109
0.0003963
0.0003985
0.001185
0.004895
0.02145
0.04912
0.0659
0.05097
0.03835
0.02776
0.02302
0.02587
0.0251
0.01512
0.00661
0.003454
0.002911
0.003637
0.006163
0.009853
0.01042
0.003241
0.0006119
9.422e-05
2.859e-05
2.342e-05
5.657e-05
0.0001238
0.0004399
0.004193
0.09081
0.8432
0.984
0.9974
0.9992
0.9995
0.9991
0.9965
0.9798
0.8786
0.4829
0.1279
0.09597
0.1301
0.2299
0.4101
0.5073
0.529
0.5354
0.5525
0.5835
0.6375
0.6854
0.7304
0.766
0.7986
0.8243
0.8452
0.8578
0.8664
0.8714
0.8753
0.8791
0.8821
0.8845
0.8853
0.8872
0.8891
0.8891
0.8875
0.8882
0.8902
0.8942
0.9003
0.904
0.9033
0.9005
0.8932
0.8826
0.8726
0.8657
0.8629
0.8635
0.8643
0.8638
0.8628
0.8611
0.8602
0.8598
0.8581
0.8524
0.8403
0.8251
0.811
0.8055
0.8088
0.8183
0.8285
0.8381
0.845
0.8511
0.8559
0.8606
0.8653
0.8706
0.8763
0.8826
0.8888
0.8953
0.9014
0.9068
0.9124
0.9178
0.9231
0.9282
0.9331
0.9373
0.9415
0.9455
0.9496
0.9536
0.9575
0.961
0.9643
0.9672
0.9701
0.9729
0.9756
0.9781
0.9803
0.9819
0.983
0.987
0.9912
0.9946
0.9964
0.9974
0.9976
0.9976
0.9976
0.9969
0.9954
0.05177
0.058
0.07169
0.08744
0.0819
0.06142
0.02769
0.01072
0.004563
0.003745
0.003339
0.00646
0.01208
0.01717
0.01599
0.01155
0.003282
0.000622
0.0001946
0.0001612
0.0005021
0.003257
0.02109
0.04635
0.05658
0.04251
0.037
0.03159
0.03122
0.03551
0.0301
0.0157
0.005343
0.002437
0.001612
0.001918
0.003591
0.006236
0.007304
0.003441
0.0009263
0.0002488
9.958e-05
7.891e-05
9.656e-05
0.0001184
0.0003107
0.002381
0.06315
0.848
0.9864
0.9979
0.9992
0.9992
0.9982
0.9919
0.9568
0.8149
0.4718
0.2077
0.1809
0.2272
0.3516
0.4897
0.5621
0.6065
0.6359
0.6667
0.704
0.7452
0.7798
0.8075
0.83
0.8458
0.8565
0.8648
0.8707
0.8771
0.8848
0.8916
0.8973
0.9012
0.9039
0.9067
0.9105
0.9142
0.9164
0.9169
0.9179
0.9198
0.923
0.9263
0.9267
0.9228
0.9159
0.9065
0.8985
0.8936
0.8907
0.8886
0.887
0.8856
0.8839
0.8829
0.8816
0.8814
0.8816
0.8812
0.8784
0.8743
0.8699
0.8675
0.8689
0.8728
0.8774
0.8824
0.8875
0.8923
0.8969
0.9011
0.9054
0.9098
0.9143
0.9189
0.9236
0.928
0.9323
0.9364
0.94
0.9438
0.9474
0.9509
0.9541
0.957
0.9596
0.9621
0.9646
0.9672
0.9696
0.9719
0.974
0.9759
0.9776
0.9793
0.9809
0.9824
0.9839
0.9851
0.986
0.9864
0.989
0.9917
0.9944
0.996
0.9969
0.9971
0.9971
0.9966
0.9949
0.9917
0.05204
0.06231
0.07899
0.08496
0.06454
0.03813
0.01488
0.00627
0.004125
0.004491
0.006524
0.01342
0.01843
0.01733
0.01424
0.008974
0.00342
0.0007359
0.0002292
0.0001506
0.000406
0.002346
0.01535
0.03491
0.04837
0.04348
0.04689
0.04868
0.05281
0.05736
0.04488
0.02419
0.01015
0.00498
0.003107
0.003217
0.005405
0.008175
0.009039
0.006196
0.00346
0.001568
0.001005
0.0007167
0.0004021
0.0002797
0.0003389
0.001776
0.03423
0.7476
0.9693
0.9933
0.9962
0.9948
0.9853
0.9448
0.8213
0.5803
0.3337
0.2539
0.278
0.3454
0.4631
0.5543
0.6178
0.666
0.7014
0.7337
0.7651
0.7952
0.8198
0.8367
0.849
0.8562
0.8616
0.8671
0.8733
0.8819
0.8919
0.9002
0.9072
0.9118
0.9149
0.9179
0.9213
0.9242
0.9269
0.929
0.9309
0.9323
0.9337
0.9336
0.9311
0.9253
0.917
0.9083
0.902
0.899
0.8975
0.8961
0.8947
0.8933
0.8919
0.8912
0.8906
0.8908
0.8915
0.892
0.892
0.892
0.8923
0.8939
0.8967
0.9001
0.9038
0.908
0.9124
0.917
0.9215
0.9256
0.9298
0.9339
0.9378
0.9417
0.9454
0.9487
0.9519
0.9549
0.9577
0.9604
0.9629
0.9653
0.9674
0.9694
0.9712
0.973
0.9747
0.9763
0.9778
0.9792
0.9806
0.9818
0.9829
0.984
0.985
0.9859
0.9868
0.9875
0.988
0.9882
0.9894
0.9908
0.9926
0.9944
0.9957
0.996
0.9959
0.9944
0.9912
0.9861
0.0497
0.06408
0.08426
0.07908
0.05125
0.02461
0.01064
0.005962
0.00766
0.009524
0.01407
0.01939
0.01846
0.01245
0.009536
0.007533
0.005218
0.001481
0.0005153
0.0002552
0.0005043
0.002091
0.01088
0.02335
0.03257
0.03463
0.04344
0.05525
0.06329
0.06905
0.05944
0.04254
0.02551
0.0168
0.01116
0.01044
0.01345
0.01764
0.02002
0.02041
0.01862
0.01339
0.01153
0.00896
0.003752
0.001919
0.001518
0.003715
0.02705
0.4755
0.8784
0.9543
0.9624
0.9414
0.8661
0.6774
0.4092
0.2672
0.2339
0.2635
0.3268
0.416
0.525
0.6096
0.6676
0.7094
0.7385
0.7627
0.7863
0.8072
0.8242
0.8358
0.8442
0.8486
0.8536
0.8593
0.8666
0.8771
0.8884
0.8978
0.9048
0.9094
0.9124
0.9156
0.919
0.9215
0.9236
0.9244
0.9249
0.9244
0.9241
0.922
0.918
0.9101
0.9027
0.896
0.8931
0.8929
0.8933
0.893
0.8923
0.8915
0.8908
0.8904
0.8903
0.8908
0.8921
0.8939
0.8957
0.8979
0.9003
0.9033
0.9069
0.9113
0.9158
0.9206
0.9255
0.9303
0.9348
0.9392
0.9434
0.9473
0.951
0.9544
0.9576
0.9603
0.9629
0.9652
0.9674
0.9694
0.9713
0.973
0.9747
0.9763
0.9777
0.979
0.9802
0.9813
0.9823
0.9833
0.9841
0.985
0.9857
0.9864
0.9871
0.9878
0.9883
0.9888
0.9891
0.9891
0.9893
0.9899
0.9913
0.9933
0.9947
0.9953
0.9949
0.9924
0.9874
0.9805
0.04735
0.0655
0.09013
0.06776
0.0384
0.01771
0.01058
0.009938
0.01706
0.01833
0.02257
0.01587
0.01227
0.006912
0.005911
0.00415
0.002162
0.0004776
0.0001428
7.245e-05
0.0001453
0.0006286
0.003554
0.008411
0.01586
0.0206
0.02726
0.04025
0.0512
0.05654
0.05428
0.05099
0.04572
0.04204
0.03648
0.03428
0.03923
0.0453
0.05166
0.06089
0.06469
0.06499
0.06563
0.06468
0.03395
0.02145
0.01425
0.01834
0.04353
0.2273
0.6121
0.7606
0.7565
0.6465
0.4261
0.2157
0.1651
0.176
0.2076
0.2681
0.3623
0.4623
0.56
0.6298
0.6786
0.7143
0.7397
0.7586
0.7774
0.7938
0.8084
0.819
0.8265
0.8302
0.8348
0.8405
0.8481
0.8597
0.8718
0.8814
0.8886
0.8919
0.8936
0.8963
0.8974
0.8966
0.8966
0.8946
0.8942
0.8946
0.8942
0.8895
0.8844
0.878
0.8735
0.8702
0.8708
0.8727
0.8739
0.8745
0.8751
0.8757
0.8766
0.8779
0.8796
0.8816
0.884
0.8869
0.8899
0.8934
0.8974
0.902
0.9072
0.913
0.9192
0.9254
0.9315
0.9371
0.9423
0.9469
0.9513
0.9552
0.9587
0.9618
0.9646
0.967
0.9692
0.9713
0.9732
0.9748
0.9763
0.9776
0.9789
0.9801
0.9812
0.9823
0.9832
0.984
0.9847
0.9855
0.9861
0.9867
0.9873
0.9879
0.9884
0.9888
0.9892
0.9895
0.9895
0.9893
0.9892
0.99
0.9913
0.9934
0.9947
0.9955
0.995
0.9931
0.9888
0.9839
0.04463
0.06561
0.09629
0.061
0.02954
0.0139
0.01122
0.01661
0.03143
0.02914
0.02603
0.01278
0.006802
0.004723
0.003202
0.001202
0.0004786
9.141e-05
2.616e-05
1.506e-05
3.827e-05
0.0002541
0.001863
0.005902
0.01394
0.01674
0.02497
0.03616
0.04726
0.05089
0.05222
0.05778
0.06299
0.07297
0.07648
0.0806
0.08879
0.1007
0.11
0.1275
0.1352
0.1341
0.1339
0.1565
0.1331
0.1154
0.09248
0.08981
0.1124
0.2011
0.3119
0.3831
0.3301
0.2334
0.1724
0.153
0.1607
0.1916
0.2366
0.3041
0.395
0.4819
0.5549
0.6065
0.6476
0.6809
0.7086
0.7297
0.7504
0.7672
0.783
0.794
0.8011
0.8034
0.807
0.8128
0.8193
0.8288
0.8384
0.846
0.8519
0.8527
0.8524
0.8531
0.8512
0.8471
0.8466
0.8422
0.841
0.8408
0.8402
0.8347
0.8316
0.829
0.8296
0.8311
0.8346
0.8375
0.84
0.8423
0.8449
0.8477
0.8507
0.8541
0.8579
0.862
0.8665
0.8716
0.877
0.8828
0.8892
0.8957
0.9026
0.9105
0.9187
0.9267
0.9342
0.9407
0.9463
0.9513
0.9556
0.9595
0.9628
0.9657
0.9683
0.9706
0.9727
0.9746
0.9763
0.9778
0.9791
0.9802
0.9813
0.9824
0.9833
0.9841
0.9849
0.9856
0.9862
0.9868
0.9873
0.9878
0.9883
0.9887
0.9891
0.9894
0.9895
0.9895
0.9892
0.9892
0.99
0.9918
0.9934
0.9951
0.9958
0.9963
0.9962
0.9951
0.9925
0.9885
0.03768
0.05818
0.08918
0.05295
0.02341
0.01298
0.01497
0.02606
0.04174
0.03349
0.02195
0.01157
0.00655
0.004475
0.001721
0.0004327
0.0001272
2.753e-05
1.146e-05
9.561e-06
3.663e-05
0.0002614
0.001783
0.006076
0.0162
0.01799
0.0249
0.03495
0.04352
0.04403
0.04685
0.05213
0.06455
0.08388
0.09949
0.113
0.1294
0.1436
0.153
0.1602
0.1615
0.1633
0.171
0.2046
0.2189
0.2414
0.2401
0.2411
0.2501
0.2875
0.3053
0.2883
0.2431
0.2014
0.1881
0.1907
0.2129
0.2508
0.29
0.344
0.4148
0.4748
0.5257
0.5662
0.6041
0.6368
0.6643
0.6883
0.7114
0.731
0.7486
0.7605
0.7675
0.7695
0.7724
0.7768
0.7807
0.7851
0.7878
0.7909
0.7889
0.7788
0.7734
0.7717
0.7723
0.77
0.7676
0.7585
0.7573
0.7593
0.7596
0.7559
0.7578
0.7613
0.7671
0.7722
0.777
0.7816
0.7866
0.7919
0.7975
0.8033
0.8091
0.815
0.8211
0.8282
0.8361
0.8449
0.8541
0.8637
0.8737
0.8833
0.8931
0.9035
0.9142
0.9244
0.9337
0.9414
0.9478
0.9531
0.9576
0.9615
0.9648
0.9678
0.9704
0.9727
0.9747
0.9766
0.9781
0.9795
0.9807
0.9818
0.9828
0.9838
0.9846
0.9853
0.9859
0.9866
0.9871
0.9876
0.9881
0.9885
0.9889
0.9892
0.9894
0.9895
0.9893
0.9895
0.9897
0.9905
0.9921
0.994
0.9954
0.9965
0.997
0.9973
0.9975
0.9969
0.9951
0.9909
0.0284
0.04632
0.07348
0.04345
0.01814
0.01306
0.01907
0.04251
0.0549
0.03697
0.01853
0.009133
0.005035
0.003566
0.000832
0.0001894
6.827e-05
2.626e-05
1.651e-05
1.953e-05
8.991e-05
0.0005994
0.004224
0.01405
0.03287
0.03013
0.03447
0.03859
0.04224
0.04257
0.04645
0.055
0.0753
0.09324
0.1075
0.1182
0.1308
0.1417
0.1494
0.1589
0.1702
0.1782
0.2025
0.229
0.2523
0.2636
0.2662
0.2643
0.2856
0.3047
0.3033
0.2846
0.2582
0.2473
0.2494
0.2607
0.2823
0.312
0.3381
0.3788
0.4236
0.464
0.4997
0.5323
0.5636
0.5932
0.6196
0.6458
0.6694
0.6893
0.7067
0.7187
0.7253
0.7276
0.7285
0.7288
0.7271
0.7241
0.719
0.7142
0.6964
0.6654
0.6471
0.6466
0.6525
0.6655
0.6749
0.6613
0.6533
0.6548
0.6584
0.6594
0.6663
0.6739
0.6816
0.6891
0.6967
0.7046
0.713
0.7175
0.7198
0.7207
0.7221
0.7264
0.7363
0.7494
0.7654
0.786
0.8072
0.8279
0.8464
0.8618
0.8749
0.8881
0.9012
0.9135
0.9261
0.9371
0.9462
0.9534
0.9588
0.9628
0.9661
0.969
0.9715
0.9738
0.9759
0.9777
0.9792
0.9805
0.9817
0.9828
0.9837
0.9846
0.9854
0.986
0.9866
0.9872
0.9876
0.9881
0.9885
0.9888
0.9891
0.9893
0.9892
0.989
0.989
0.99
0.9911
0.9926
0.9943
0.9957
0.9966
0.9972
0.9974
0.9974
0.9976
0.9968
0.9949
0.9901
0.02511
0.041
0.06164
0.0379
0.01458
0.01235
0.02157
0.04762
0.05205
0.03059
0.01529
0.007748
0.003574
0.002364
0.0005893
0.0001664
0.0001078
8.849e-05
8.17e-05
0.0001263
0.0005302
0.002609
0.0132
0.03776
0.07381
0.06172
0.0602
0.0538
0.04832
0.0454
0.04863
0.05979
0.08637
0.1077
0.119
0.1274
0.1402
0.1527
0.1609
0.1721
0.1843
0.1883
0.2059
0.2267
0.2448
0.2517
0.2587
0.2665
0.2857
0.3052
0.3138
0.3117
0.3008
0.303
0.3085
0.3186
0.3287
0.3438
0.3657
0.3923
0.4238
0.4557
0.4832
0.5082
0.5333
0.5571
0.5789
0.6028
0.6232
0.6405
0.6533
0.6637
0.6697
0.6718
0.6692
0.664
0.6547
0.6428
0.6284
0.6175
0.579
0.5141
0.4621
0.4368
0.4298
0.4584
0.488
0.4871
0.4994
0.5149
0.5203
0.5266
0.5369
0.5485
0.5608
0.5733
0.5789
0.5799
0.579
0.5689
0.5562
0.5572
0.5666
0.5857
0.6152
0.6452
0.6719
0.7084
0.7447
0.7787
0.8076
0.8306
0.8482
0.8648
0.8806
0.8956
0.912
0.9266
0.9386
0.9488
0.9567
0.9623
0.9667
0.97
0.9724
0.9746
0.9766
0.9783
0.9798
0.9812
0.9823
0.9834
0.9843
0.9851
0.9858
0.9864
0.9869
0.9874
0.9878
0.9881
0.9884
0.9886
0.9888
0.9887
0.9884
0.9883
0.9892
0.9912
0.993
0.9949
0.996
0.9968
0.997
0.9972
0.9967
0.996
0.9958
0.9947
0.9921
0.9854
0.02566
0.04132
0.05982
0.04068
0.01621
0.01483
0.02253
0.04306
0.04397
0.02673
0.01259
0.007453
0.004287
0.002828
0.0009417
0.0004291
0.0004665
0.0006664
0.0008306
0.001278
0.003918
0.01218
0.03584
0.07726
0.1201
0.09794
0.08587
0.06772
0.05409
0.04881
0.05519
0.07065
0.1013
0.1302
0.1366
0.1402
0.1477
0.1526
0.1589
0.1684
0.1784
0.1852
0.2017
0.2213
0.2391
0.2457
0.2493
0.2579
0.2692
0.2878
0.2984
0.3057
0.304
0.3181
0.3274
0.3379
0.3515
0.3718
0.392
0.4087
0.4323
0.456
0.4766
0.494
0.5133
0.5295
0.5462
0.5636
0.5763
0.5837
0.5904
0.5964
0.5997
0.5982
0.5885
0.572
0.5506
0.5281
0.5042
0.4885
0.4418
0.3602
0.3017
0.2703
0.2493
0.2695
0.2975
0.3047
0.323
0.3426
0.3358
0.3436
0.3478
0.3501
0.3514
0.3567
0.3477
0.3538
0.3608
0.3552
0.3429
0.3517
0.3649
0.3983
0.4492
0.5009
0.5432
0.6015
0.6597
0.7139
0.7564
0.7892
0.8132
0.8346
0.8536
0.8712
0.8912
0.9097
0.9257
0.9392
0.9496
0.9578
0.9645
0.9696
0.9727
0.9752
0.9769
0.9786
0.9801
0.9814
0.9826
0.9836
0.9844
0.9851
0.9857
0.9862
0.9867
0.987
0.9873
0.9876
0.9877
0.9878
0.9876
0.9873
0.9872
0.9881
0.9902
0.9928
0.9949
0.9962
0.9967
0.9968
0.9964
0.9959
0.9945
0.9929
0.991
0.9884
0.9834
0.9736
0.02813
0.04284
0.06215
0.04212
0.01926
0.01695
0.02014
0.03549
0.03952
0.02757
0.01554
0.01284
0.009376
0.007208
0.003331
0.001885
0.002289
0.003773
0.005576
0.009719
0.02034
0.03968
0.06902
0.09709
0.1075
0.09028
0.08598
0.06629
0.05263
0.04573
0.04703
0.05607
0.08195
0.1121
0.1257
0.1351
0.1441
0.1519
0.1601
0.1733
0.1879
0.1983
0.2123
0.2276
0.238
0.2403
0.2401
0.245
0.249
0.2643
0.2802
0.2953
0.304
0.3227
0.3382
0.3545
0.3722
0.3942
0.4141
0.428
0.4455
0.4611
0.4752
0.485
0.4984
0.5056
0.5149
0.5245
0.5275
0.5252
0.5232
0.5201
0.5163
0.5058
0.4836
0.4522
0.4132
0.378
0.3477
0.3297
0.2939
0.2429
0.2133
0.1887
0.1656
0.1673
0.1814
0.1971
0.2117
0.2287
0.222
0.2203
0.2142
0.2096
0.2028
0.1993
0.1904
0.1941
0.1953
0.1943
0.1886
0.1992
0.2058
0.2327
0.2753
0.3319
0.3932
0.4776
0.5602
0.6339
0.6937
0.7401
0.7742
0.8029
0.8261
0.8461
0.8685
0.8897
0.9077
0.9244
0.9375
0.9491
0.959
0.9667
0.9716
0.9751
0.977
0.9783
0.9797
0.9811
0.9822
0.9831
0.9838
0.9844
0.9848
0.9852
0.9856
0.9858
0.986
0.9861
0.986
0.9858
0.9863
0.9868
0.9881
0.9901
0.9924
0.9945
0.996
0.9966
0.9964
0.9959
0.9944
0.9926
0.9889
0.9851
0.9804
0.9758
0.9686
0.9568
0.03188
0.0474
0.06834
0.0466
0.02333
0.01552
0.01363
0.0247
0.03648
0.03436
0.02339
0.02555
0.02024
0.01693
0.01071
0.007597
0.009396
0.01638
0.02236
0.03305
0.05058
0.07132
0.09088
0.09845
0.0942
0.08321
0.08656
0.06977
0.05746
0.05006
0.04886
0.05367
0.07446
0.1054
0.1288
0.1458
0.1541
0.1611
0.1669
0.1764
0.1886
0.1989
0.209
0.2178
0.2225
0.2244
0.2271
0.2358
0.2444
0.2538
0.2667
0.2803
0.2945
0.317
0.3383
0.3611
0.3849
0.408
0.4257
0.4368
0.4478
0.4582
0.4663
0.4694
0.4783
0.4782
0.4811
0.4816
0.4788
0.4682
0.4584
0.4442
0.4266
0.3998
0.3611
0.3177
0.2785
0.2493
0.2297
0.2191
0.2064
0.1858
0.1738
0.1632
0.1439
0.1433
0.1479
0.1603
0.1646
0.1663
0.1543
0.1499
0.1483
0.1503
0.1435
0.1346
0.1244
0.1241
0.1267
0.1313
0.1336
0.1483
0.1605
0.1834
0.2198
0.2558
0.2943
0.3671
0.4595
0.5493
0.6295
0.6913
0.7374
0.7744
0.8029
0.8252
0.8479
0.8697
0.8893
0.9079
0.9228
0.9358
0.9499
0.9619
0.9693
0.9741
0.9764
0.9772
0.9784
0.9797
0.9808
0.9816
0.9821
0.9825
0.9828
0.983
0.9833
0.9834
0.9845
0.986
0.9874
0.9883
0.9895
0.9901
0.9913
0.9929
0.9946
0.9955
0.9961
0.9958
0.9945
0.9923
0.988
0.9832
0.9768
0.9698
0.9602
0.954
0.9479
0.9364
0.03165
0.0463
0.07024
0.04535
0.02485
0.01158
0.008425
0.01618
0.03708
0.05153
0.04609
0.05022
0.0402
0.03539
0.02638
0.0226
0.0228
0.03523
0.04403
0.05736
0.06928
0.08153
0.08976
0.08874
0.08934
0.08512
0.09109
0.0799
0.06933
0.05683
0.05202
0.05483
0.07013
0.09794
0.126
0.1492
0.1595
0.1679
0.1747
0.182
0.1905
0.2021
0.2129
0.2219
0.2261
0.231
0.2383
0.2458
0.2526
0.2577
0.2686
0.2828
0.3045
0.3302
0.356
0.381
0.4033
0.4221
0.4359
0.4436
0.4483
0.4507
0.4498
0.4491
0.4521
0.4468
0.4419
0.4357
0.428
0.4128
0.3975
0.3721
0.3399
0.3067
0.2725
0.2401
0.2122
0.1917
0.1765
0.166
0.1595
0.1531
0.152
0.1488
0.1251
0.1083
0.1009
0.1025
0.106
0.1114
0.1052
0.101
0.1037
0.1088
0.1122
0.1101
0.1068
0.109
0.116
0.122
0.1306
0.1498
0.1692
0.1974
0.2357
0.2647
0.2987
0.3559
0.4297
0.5075
0.5871
0.6539
0.709
0.7554
0.7908
0.8164
0.8377
0.8575
0.8756
0.8932
0.9081
0.9216
0.9377
0.9527
0.964
0.9707
0.9739
0.9747
0.9755
0.9766
0.9776
0.9784
0.9801
0.9822
0.9843
0.9859
0.9869
0.9869
0.9882
0.9892
0.9898
0.9897
0.9902
0.9901
0.9916
0.9927
0.994
0.9944
0.9944
0.993
0.9894
0.9828
0.974
0.9637
0.9546
0.9467
0.9377
0.9315
0.9253
0.9074
0.02596
0.03979
0.06641
0.05101
0.03834
0.01483
0.008907
0.01241
0.0304
0.04093
0.04659
0.05174
0.04843
0.04445
0.0395
0.04071
0.03973
0.05425
0.06976
0.07893
0.07777
0.08206
0.08318
0.07769
0.07668
0.07323
0.07899
0.07573
0.07619
0.07002
0.06365
0.06421
0.07624
0.09711
0.1209
0.1434
0.1543
0.1614
0.1764
0.1877
0.1967
0.2056
0.2146
0.2234
0.2304
0.2403
0.2541
0.2658
0.2748
0.2817
0.2887
0.2993
0.3205
0.3423
0.3682
0.3939
0.417
0.435
0.4483
0.4548
0.4544
0.4491
0.4387
0.4299
0.4294
0.4199
0.4116
0.4007
0.3867
0.3653
0.3467
0.3175
0.2846
0.2546
0.2254
0.2011
0.1808
0.1657
0.1548
0.1461
0.136
0.1294
0.1211
0.112
0.08983
0.0713
0.06025
0.05901
0.05977
0.06458
0.0606
0.05764
0.06339
0.07408
0.08529
0.09287
0.09751
0.1048
0.1215
0.1375
0.1543
0.1711
0.1921
0.2165
0.2492
0.2707
0.3068
0.3574
0.4247
0.4972
0.5721
0.6359
0.6921
0.7428
0.7823
0.8112
0.833
0.8518
0.8693
0.8856
0.8988
0.9095
0.9238
0.9411
0.9587
0.9702
0.9766
0.9792
0.9801
0.9806
0.9814
0.9821
0.9843
0.9867
0.9882
0.9889
0.9888
0.9875
0.9881
0.9887
0.9894
0.9888
0.9886
0.9877
0.9886
0.9891
0.99
0.9895
0.988
0.9836
0.9744
0.9599
0.9454
0.9328
0.9242
0.9163
0.9051
0.8894
0.8699
0.8382
0.02179
0.03483
0.06415
0.06277
0.06026
0.02048
0.01086
0.01044
0.02173
0.03013
0.03949
0.0435
0.04633
0.04704
0.04266
0.04378
0.04257
0.0584
0.08191
0.09034
0.08005
0.07546
0.07804
0.07917
0.07981
0.07299
0.07401
0.07026
0.07432
0.07345
0.0702
0.06736
0.08033
0.09395
0.1121
0.1274
0.1392
0.1482
0.1736
0.1897
0.1991
0.2042
0.2095
0.2163
0.2266
0.238
0.2524
0.2672
0.2807
0.2941
0.3051
0.3186
0.3383
0.3577
0.3784
0.3974
0.4158
0.4301
0.442
0.4504
0.452
0.4462
0.4334
0.4214
0.4191
0.4086
0.3928
0.3752
0.3496
0.3219
0.3027
0.2754
0.2389
0.2072
0.1784
0.1563
0.1415
0.1269
0.1126
0.1008
0.07978
0.06869
0.06015
0.05256
0.04196
0.03555
0.02843
0.02867
0.0316
0.03477
0.03324
0.03293
0.03921
0.05229
0.06922
0.08691