/*--------------------------------*- C++ -*----------------------------------*\
| =========                 |                                                 |
| \\      /  F ield         | OpenFOAM: The Open Source CFD Toolbox           |
|  \\    /   O peration     | Version:  5.x                                   |
|   \\  /    A nd           | Web:      www.OpenFOAM.org                      |
|    \\/     M anipulation  |                                                 |
\*---------------------------------------------------------------------------*/
FoamFile
{
    version     2.0;
    format      ascii;
    class       volScalarField;
    location    "5";
    object      T;
}
// * * * * * * * * * * * * * * * * * * * * * * * * * * * * * * * * * * * * * //

dimensions      [0 0 0 1 0 0 0];

internalField   nonuniform List<scalar> 
86400
(
54.81
54.81
54.8
54.79
54.78
54.76
54.74
54.72
54.69
54.66
54.63
54.6
54.56
54.53
54.49
54.45
54.4
54.36
54.32
54.27
54.23
54.18
54.13
54.08
54.03
53.98
53.93
53.88
53.83
53.77
53.72
53.67
53.61
53.56
53.51
53.45
53.4
53.34
53.29
53.23
53.18
53.12
53.07
53.01
52.96
52.9
52.85
52.79
52.73
52.68
52.62
52.57
52.51
52.45
52.4
52.34
52.28
52.23
52.17
52.11
52.05
52
51.94
51.88
51.82
51.76
51.71
51.65
51.59
51.53
51.47
51.41
51.35
51.29
51.23
51.17
51.11
51.05
50.99
50.92
50.86
50.8
50.74
50.67
50.61
50.55
50.48
50.42
50.35
50.29
50.22
50.16
50.09
50.02
49.95
49.89
49.82
49.75
49.68
49.61
49.54
49.47
49.4
49.32
49.25
49.18
49.1
49.03
48.95
48.88
48.8
48.72
48.65
48.57
48.49
48.41
48.33
48.24
48.16
48.08
47.99
47.91
47.82
47.73
47.64
47.55
47.46
47.37
47.28
47.18
47.09
46.99
46.89
46.79
46.69
46.59
46.48
46.37
46.27
46.15
46.04
45.93
45.81
45.69
45.57
45.45
45.32
45.19
45.05
44.92
44.77
44.63
44.48
44.32
44.16
43.99
43.81
43.63
43.45
43.23
54.79
54.79
54.78
54.77
54.76
54.74
54.72
54.7
54.67
54.64
54.61
54.58
54.54
54.5
54.47
54.43
54.38
54.34
54.3
54.25
54.2
54.16
54.11
54.06
54.01
53.96
53.91
53.85
53.8
53.75
53.7
53.64
53.59
53.54
53.48
53.43
53.37
53.32
53.26
53.21
53.15
53.1
53.04
52.99
52.93
52.88
52.82
52.77
52.71
52.65
52.6
52.54
52.49
52.43
52.37
52.32
52.26
52.2
52.14
52.09
52.03
51.97
51.91
51.86
51.8
51.74
51.68
51.62
51.56
51.5
51.45
51.39
51.33
51.27
51.21
51.14
51.08
51.02
50.96
50.9
50.84
50.77
50.71
50.65
50.59
50.52
50.46
50.39
50.33
50.26
50.2
50.13
50.06
50
49.93
49.86
49.79
49.72
49.65
49.58
49.51
49.44
49.37
49.3
49.23
49.15
49.08
49
48.93
48.85
48.78
48.7
48.62
48.54
48.46
48.38
48.3
48.22
48.13
48.05
47.96
47.88
47.79
47.7
47.61
47.52
47.43
47.34
47.25
47.15
47.06
46.96
46.86
46.76
46.66
46.55
46.45
46.34
46.23
46.12
46.01
45.89
45.78
45.66
45.53
45.41
45.28
45.15
45.01
44.87
44.73
44.58
44.42
44.26
44.09
43.91
43.72
43.52
43.28
42.98
54.75
54.75
54.74
54.73
54.72
54.7
54.68
54.65
54.63
54.6
54.57
54.53
54.5
54.46
54.42
54.38
54.34
54.3
54.25
54.21
54.16
54.11
54.06
54.01
53.96
53.91
53.86
53.81
53.76
53.7
53.65
53.6
53.54
53.49
53.44
53.38
53.33
53.27
53.22
53.16
53.11
53.05
53
52.94
52.89
52.83
52.77
52.72
52.66
52.61
52.55
52.49
52.44
52.38
52.32
52.27
52.21
52.15
52.09
52.04
51.98
51.92
51.86
51.81
51.75
51.69
51.63
51.57
51.51
51.45
51.39
51.33
51.27
51.21
51.15
51.09
51.03
50.97
50.91
50.85
50.79
50.72
50.66
50.6
50.53
50.47
50.4
50.34
50.27
50.21
50.14
50.08
50.01
49.94
49.88
49.81
49.74
49.67
49.6
49.53
49.46
49.39
49.31
49.24
49.17
49.1
49.02
48.95
48.87
48.79
48.72
48.64
48.56
48.48
48.4
48.32
48.24
48.15
48.07
47.99
47.9
47.81
47.73
47.64
47.55
47.46
47.37
47.27
47.18
47.08
46.98
46.89
46.79
46.68
46.58
46.47
46.37
46.26
46.15
46.04
45.92
45.8
45.68
45.56
45.43
45.3
45.17
45.03
44.89
44.74
44.59
44.43
44.26
44.09
43.9
43.69
43.47
43.21
42.9
42.51
54.69
54.69
54.68
54.67
54.66
54.64
54.62
54.59
54.57
54.54
54.51
54.47
54.44
54.4
54.36
54.32
54.27
54.23
54.18
54.14
54.09
54.04
53.99
53.94
53.89
53.84
53.79
53.74
53.69
53.63
53.58
53.53
53.47
53.42
53.36
53.31
53.25
53.2
53.14
53.09
53.03
52.98
52.92
52.87
52.81
52.76
52.7
52.64
52.59
52.53
52.47
52.42
52.36
52.3
52.25
52.19
52.13
52.08
52.02
51.96
51.9
51.84
51.79
51.73
51.67
51.61
51.55
51.49
51.43
51.37
51.32
51.26
51.2
51.13
51.07
51.01
50.95
50.89
50.83
50.77
50.7
50.64
50.58
50.51
50.45
50.39
50.32
50.26
50.19
50.12
50.06
49.99
49.92
49.86
49.79
49.72
49.65
49.58
49.51
49.44
49.37
49.3
49.22
49.15
49.08
49
48.93
48.85
48.77
48.7
48.62
48.54
48.46
48.38
48.3
48.22
48.13
48.05
47.97
47.88
47.79
47.71
47.62
47.53
47.44
47.34
47.25
47.15
47.06
46.96
46.86
46.76
46.66
46.55
46.44
46.34
46.23
46.11
46
45.88
45.76
45.64
45.51
45.38
45.25
45.11
44.97
44.82
44.66
44.5
44.33
44.16
43.97
43.76
43.54
43.29
43.02
42.7
42.31
41.83
54.62
54.61
54.61
54.59
54.58
54.56
54.54
54.51
54.49
54.46
54.42
54.39
54.35
54.31
54.27
54.23
54.19
54.14
54.1
54.05
54
53.95
53.9
53.85
53.8
53.75
53.7
53.64
53.59
53.54
53.48
53.43
53.38
53.32
53.27
53.21
53.16
53.1
53.05
52.99
52.93
52.88
52.82
52.77
52.71
52.65
52.6
52.54
52.48
52.43
52.37
52.31
52.26
52.2
52.14
52.09
52.03
51.97
51.91
51.86
51.8
51.74
51.68
51.62
51.56
51.5
51.44
51.39
51.33
51.27
51.21
51.15
51.08
51.02
50.96
50.9
50.84
50.78
50.72
50.65
50.59
50.53
50.46
50.4
50.33
50.27
50.2
50.14
50.07
50.01
49.94
49.87
49.8
49.73
49.67
49.6
49.53
49.46
49.38
49.31
49.24
49.17
49.09
49.02
48.94
48.87
48.79
48.72
48.64
48.56
48.48
48.4
48.32
48.24
48.15
48.07
47.99
47.9
47.81
47.73
47.64
47.55
47.46
47.36
47.27
47.17
47.08
46.98
46.88
46.78
46.67
46.57
46.46
46.35
46.24
46.13
46.01
45.89
45.77
45.65
45.52
45.39
45.25
45.11
44.96
44.81
44.66
44.49
44.32
44.14
43.95
43.74
43.52
43.28
43.01
42.71
42.37
41.98
41.52
40.96
54.52
54.52
54.51
54.5
54.48
54.46
54.44
54.41
54.38
54.35
54.32
54.28
54.25
54.21
54.16
54.12
54.08
54.03
53.98
53.94
53.89
53.84
53.79
53.73
53.68
53.63
53.58
53.52
53.47
53.42
53.36
53.31
53.25
53.2
53.14
53.09
53.03
52.98
52.92
52.86
52.81
52.75
52.7
52.64
52.58
52.53
52.47
52.41
52.35
52.3
52.24
52.18
52.13
52.07
52.01
51.95
51.89
51.84
51.78
51.72
51.66
51.6
51.54
51.48
51.43
51.37
51.31
51.25
51.19
51.13
51.06
51
50.94
50.88
50.82
50.76
50.69
50.63
50.57
50.51
50.44
50.38
50.31
50.25
50.18
50.12
50.05
49.98
49.92
49.85
49.78
49.71
49.64
49.57
49.5
49.43
49.36
49.29
49.22
49.15
49.07
49
48.92
48.85
48.77
48.69
48.62
48.54
48.46
48.38
48.3
48.21
48.13
48.05
47.96
47.87
47.79
47.7
47.61
47.52
47.43
47.33
47.24
47.14
47.04
46.94
46.84
46.74
46.64
46.53
46.42
46.31
46.2
46.08
45.96
45.84
45.72
45.59
45.46
45.32
45.19
45.04
44.89
44.74
44.58
44.41
44.23
44.05
43.85
43.64
43.42
43.18
42.92
42.63
42.32
41.96
41.56
41.1
40.57
39.94
54.41
54.4
54.39
54.38
54.36
54.34
54.32
54.29
54.26
54.23
54.19
54.16
54.12
54.08
54.03
53.99
53.94
53.9
53.85
53.8
53.75
53.7
53.65
53.59
53.54
53.49
53.43
53.38
53.33
53.27
53.22
53.16
53.11
53.05
52.99
52.94
52.88
52.82
52.77
52.71
52.65
52.6
52.54
52.48
52.43
52.37
52.31
52.25
52.2
52.14
52.08
52.02
51.96
51.91
51.85
51.79
51.73
51.67
51.61
51.55
51.5
51.44
51.38
51.32
51.26
51.2
51.14
51.07
51.01
50.95
50.89
50.83
50.77
50.7
50.64
50.58
50.52
50.45
50.39
50.32
50.26
50.19
50.13
50.06
50
49.93
49.86
49.79
49.72
49.66
49.59
49.52
49.45
49.38
49.3
49.23
49.16
49.09
49.01
48.94
48.86
48.78
48.71
48.63
48.55
48.47
48.39
48.31
48.23
48.15
48.06
47.98
47.89
47.8
47.71
47.63
47.53
47.44
47.35
47.25
47.16
47.06
46.96
46.86
46.76
46.65
46.55
46.44
46.33
46.21
46.1
45.98
45.86
45.74
45.61
45.48
45.34
45.2
45.06
44.91
44.76
44.6
44.44
44.26
44.08
43.9
43.7
43.49
43.26
43.02
42.76
42.49
42.18
41.85
41.48
41.08
40.62
40.1
39.5
38.83
54.27
54.27
54.26
54.24
54.23
54.2
54.18
54.15
54.12
54.09
54.05
54.01
53.97
53.93
53.88
53.84
53.79
53.74
53.69
53.64
53.59
53.54
53.48
53.43
53.38
53.32
53.27
53.21
53.16
53.1
53.04
52.99
52.93
52.88
52.82
52.76
52.7
52.65
52.59
52.53
52.47
52.42
52.36
52.3
52.24
52.18
52.13
52.07
52.01
51.95
51.89
51.83
51.77
51.72
51.66
51.6
51.54
51.48
51.42
51.36
51.3
51.24
51.18
51.12
51.06
50.99
50.93
50.87
50.81
50.75
50.68
50.62
50.56
50.49
50.43
50.37
50.3
50.24
50.17
50.11
50.04
49.97
49.91
49.84
49.77
49.7
49.63
49.56
49.49
49.42
49.35
49.28
49.21
49.14
49.06
48.99
48.91
48.84
48.76
48.68
48.61
48.53
48.45
48.37
48.29
48.2
48.12
48.04
47.95
47.87
47.78
47.69
47.6
47.51
47.42
47.32
47.23
47.13
47.03
46.93
46.83
46.73
46.63
46.52
46.41
46.3
46.19
46.07
45.95
45.83
45.71
45.58
45.45
45.31
45.18
45.03
44.89
44.74
44.58
44.42
44.25
44.07
43.89
43.69
43.49
43.28
43.05
42.82
42.56
42.29
42
41.68
41.33
40.96
40.54
40.08
39.57
39.01
38.37
37.67
54.12
54.12
54.11
54.09
54.07
54.05
54.02
53.99
53.96
53.92
53.88
53.84
53.8
53.76
53.71
53.66
53.61
53.56
53.51
53.46
53.41
53.35
53.3
53.24
53.19
53.13
53.08
53.02
52.96
52.91
52.85
52.79
52.73
52.68
52.62
52.56
52.5
52.44
52.38
52.33
52.27
52.21
52.15
52.09
52.03
51.97
51.91
51.85
51.79
51.73
51.67
51.62
51.56
51.5
51.43
51.37
51.31
51.25
51.19
51.13
51.07
51.01
50.95
50.89
50.82
50.76
50.7
50.63
50.57
50.51
50.44
50.38
50.32
50.25
50.19
50.12
50.05
49.99
49.92
49.85
49.79
49.72
49.65
49.58
49.51
49.44
49.37
49.3
49.22
49.15
49.08
49.01
48.93
48.86
48.78
48.7
48.63
48.55
48.47
48.39
48.31
48.23
48.14
48.06
47.98
47.89
47.8
47.72
47.63
47.54
47.45
47.35
47.26
47.16
47.07
46.97
46.87
46.77
46.66
46.56
46.45
46.34
46.23
46.12
46
45.88
45.76
45.64
45.51
45.38
45.24
45.11
44.97
44.82
44.67
44.51
44.35
44.19
44.02
43.84
43.65
43.45
43.25
43.04
42.81
42.57
42.32
42.05
41.77
41.46
41.13
40.78
40.4
39.98
39.52
39.02
38.47
37.87
37.21
36.48
53.95
53.95
53.94
53.92
53.9
53.87
53.85
53.81
53.78
53.74
53.7
53.66
53.61
53.57
53.52
53.47
53.42
53.36
53.31
53.26
53.2
53.15
53.09
53.03
52.98
52.92
52.86
52.8
52.75
52.69
52.63
52.57
52.51
52.45
52.39
52.33
52.27
52.21
52.15
52.09
52.03
51.97
51.91
51.85
51.79
51.73
51.67
51.61
51.55
51.49
51.43
51.37
51.31
51.25
51.18
51.12
51.06
51
50.94
50.87
50.81
50.75
50.69
50.62
50.56
50.5
50.43
50.37
50.3
50.24
50.17
50.11
50.04
49.97
49.91
49.84
49.77
49.7
49.63
49.57
49.5
49.43
49.35
49.28
49.21
49.14
49.07
48.99
48.92
48.84
48.77
48.69
48.61
48.54
48.46
48.38
48.3
48.22
48.13
48.05
47.97
47.88
47.8
47.71
47.62
47.53
47.44
47.35
47.26
47.16
47.07
46.97
46.87
46.77
46.67
46.56
46.46
46.35
46.24
46.13
46.01
45.9
45.78
45.66
45.53
45.4
45.27
45.14
45
44.86
44.72
44.57
44.42
44.26
44.09
43.92
43.75
43.57
43.38
43.18
42.98
42.76
42.54
42.3
42.05
41.79
41.51
41.21
40.9
40.56
40.2
39.81
39.39
38.94
38.45
37.92
37.34
36.72
36.04
35.31
53.77
53.76
53.75
53.73
53.71
53.68
53.65
53.62
53.58
53.54
53.5
53.45
53.4
53.36
53.31
53.25
53.2
53.15
53.09
53.03
52.98
52.92
52.86
52.8
52.74
52.69
52.63
52.57
52.51
52.45
52.39
52.33
52.26
52.2
52.14
52.08
52.02
51.96
51.9
51.84
51.78
51.71
51.65
51.59
51.53
51.47
51.41
51.34
51.28
51.22
51.16
51.09
51.03
50.97
50.91
50.84
50.78
50.72
50.65
50.59
50.53
50.46
50.4
50.33
50.27
50.2
50.14
50.07
50
49.94
49.87
49.8
49.73
49.66
49.6
49.53
49.46
49.39
49.32
49.24
49.17
49.1
49.03
48.95
48.88
48.8
48.73
48.65
48.58
48.5
48.42
48.34
48.26
48.18
48.1
48.01
47.93
47.85
47.76
47.67
47.59
47.5
47.41
47.32
47.22
47.13
47.03
46.94
46.84
46.74
46.64
46.54
46.43
46.33
46.22
46.11
45.99
45.88
45.76
45.64
45.52
45.4
45.27
45.14
45.01
44.87
44.73
44.59
44.44
44.29
44.13
43.97
43.81
43.63
43.46
43.27
43.08
42.88
42.68
42.46
42.24
42
41.76
41.5
41.22
40.94
40.63
40.31
39.97
39.6
39.22
38.8
38.35
37.87
37.36
36.81
36.21
35.57
34.89
34.17
53.56
53.56
53.54
53.52
53.5
53.47
53.44
53.4
53.36
53.32
53.28
53.23
53.18
53.13
53.07
53.02
52.96
52.91
52.85
52.79
52.73
52.67
52.61
52.55
52.49
52.43
52.37
52.31
52.24
52.18
52.12
52.06
52
51.93
51.87
51.81
51.74
51.68
51.62
51.56
51.49
51.43
51.37
51.3
51.24
51.18
51.11
51.05
50.99
50.92
50.86
50.79
50.73
50.67
50.6
50.54
50.47
50.41
50.34
50.28
50.21
50.14
50.08
50.01
49.94
49.88
49.81
49.74
49.67
49.6
49.53
49.46
49.39
49.32
49.25
49.18
49.11
49.04
48.96
48.89
48.82
48.74
48.67
48.59
48.51
48.43
48.36
48.28
48.2
48.12
48.03
47.95
47.87
47.78
47.7
47.61
47.53
47.44
47.35
47.26
47.17
47.07
46.98
46.88
46.78
46.69
46.59
46.48
46.38
46.28
46.17
46.06
45.95
45.84
45.72
45.61
45.49
45.37
45.24
45.11
44.98
44.85
44.72
44.58
44.44
44.29
44.14
43.98
43.83
43.66
43.49
43.32
43.14
42.96
42.76
42.57
42.36
42.14
41.92
41.69
41.45
41.19
40.92
40.64
40.35
40.04
39.71
39.37
39
38.61
38.2
37.76
37.3
36.8
36.26
35.7
35.1
34.46
33.78
33.07
53.35
53.34
53.32
53.3
53.28
53.25
53.21
53.17
53.13
53.08
53.04
52.99
52.93
52.88
52.82
52.77
52.71
52.65
52.59
52.53
52.47
52.4
52.34
52.28
52.22
52.15
52.09
52.03
51.96
51.9
51.83
51.77
51.7
51.64
51.58
51.51
51.45
51.38
51.32
51.25
51.19
51.12
51.06
50.99
50.93
50.86
50.8
50.73
50.67
50.6
50.54
50.47
50.4
50.34
50.27
50.2
50.14
50.07
50
49.94
49.87
49.8
49.73
49.66
49.59
49.53
49.46
49.39
49.31
49.24
49.17
49.1
49.03
48.96
48.88
48.81
48.73
48.66
48.58
48.51
48.43
48.35
48.27
48.19
48.11
48.03
47.95
47.87
47.79
47.7
47.62
47.53
47.44
47.36
47.27
47.18
47.09
46.99
46.9
46.8
46.71
46.61
46.51
46.41
46.31
46.2
46.1
45.99
45.88
45.77
45.66
45.55
45.43
45.31
45.19
45.06
44.94
44.81
44.68
44.54
44.4
44.26
44.12
43.97
43.82
43.66
43.5
43.34
43.17
42.99
42.81
42.62
42.43
42.23
42.03
41.81
41.59
41.36
41.12
40.87
40.61
40.34
40.05
39.76
39.44
39.11
38.77
38.4
38.02
37.61
37.18
36.72
36.24
35.73
35.19
34.61
34.01
33.38
32.71
32.02
53.11
53.1
53.09
53.07
53.04
53.01
52.97
52.93
52.88
52.83
52.78
52.73
52.67
52.62
52.56
52.5
52.44
52.37
52.31
52.25
52.18
52.12
52.05
51.99
51.92
51.86
51.79
51.72
51.66
51.59
51.53
51.46
51.39
51.33
51.26
51.19
51.13
51.06
50.99
50.93
50.86
50.79
50.73
50.66
50.59
50.53
50.46
50.39
50.32
50.26
50.19
50.12
50.05
49.99
49.92
49.85
49.78
49.71
49.64
49.57
49.5
49.43
49.36
49.29
49.22
49.15
49.08
49
48.93
48.86
48.78
48.71
48.63
48.56
48.48
48.41
48.33
48.25
48.17
48.09
48.01
47.93
47.85
47.77
47.69
47.6
47.52
47.43
47.34
47.26
47.17
47.08
46.99
46.9
46.8
46.71
46.61
46.52
46.42
46.32
46.22
46.12
46.01
45.91
45.8
45.69
45.58
45.47
45.35
45.23
45.12
44.99
44.87
44.74
44.62
44.48
44.35
44.21
44.07
43.93
43.78
43.63
43.48
43.32
43.16
43
42.82
42.65
42.47
42.28
42.09
41.89
41.69
41.47
41.25
41.03
40.79
40.55
40.29
40.03
39.75
39.46
39.16
38.84
38.51
38.17
37.8
37.42
37.02
36.6
36.16
35.69
35.2
34.68
34.14
33.57
32.97
32.35
31.7
31.03
52.86
52.86
52.84
52.81
52.78
52.75
52.71
52.66
52.62
52.56
52.51
52.45
52.4
52.33
52.27
52.21
52.15
52.08
52.02
51.95
51.88
51.82
51.75
51.68
51.61
51.54
51.47
51.41
51.34
51.27
51.2
51.13
51.06
50.99
50.92
50.86
50.79
50.72
50.65
50.58
50.51
50.44
50.37
50.31
50.24
50.17
50.1
50.03
49.96
49.89
49.82
49.75
49.68
49.61
49.54
49.47
49.4
49.33
49.26
49.18
49.11
49.04
48.97
48.89
48.82
48.75
48.67
48.6
48.52
48.45
48.37
48.29
48.22
48.14
48.06
47.98
47.9
47.82
47.74
47.65
47.57
47.49
47.4
47.32
47.23
47.14
47.06
46.97
46.88
46.78
46.69
46.6
46.5
46.41
46.31
46.21
46.11
46.01
45.91
45.8
45.7
45.59
45.48
45.37
45.26
45.14
45.03
44.91
44.79
44.66
44.54
44.41
44.28
44.15
44.01
43.87
43.73
43.59
43.44
43.29
43.13
42.97
42.81
42.65
42.47
42.3
42.12
41.93
41.74
41.54
41.34
41.13
40.91
40.69
40.45
40.21
39.97
39.71
39.44
39.16
38.87
38.57
38.25
37.92
37.58
37.22
36.84
36.45
36.04
35.61
35.15
34.68
34.18
33.67
33.13
32.56
31.98
31.37
30.74
30.1
52.6
52.59
52.58
52.55
52.52
52.48
52.44
52.39
52.34
52.28
52.22
52.17
52.1
52.04
51.97
51.91
51.84
51.77
51.7
51.64
51.57
51.5
51.42
51.35
51.28
51.21
51.14
51.07
51
50.93
50.86
50.79
50.71
50.64
50.57
50.5
50.43
50.36
50.29
50.22
50.15
50.08
50
49.93
49.86
49.79
49.72
49.65
49.58
49.5
49.43
49.36
49.29
49.22
49.14
49.07
49
48.92
48.85
48.78
48.7
48.63
48.55
48.48
48.4
48.32
48.25
48.17
48.09
48.01
47.93
47.86
47.77
47.69
47.61
47.53
47.45
47.36
47.28
47.19
47.11
47.02
46.93
46.84
46.75
46.66
46.57
46.48
46.38
46.29
46.19
46.09
45.99
45.89
45.79
45.69
45.59
45.48
45.37
45.26
45.15
45.04
44.93
44.81
44.69
44.57
44.45
44.32
44.2
44.07
43.94
43.8
43.66
43.52
43.38
43.24
43.09
42.94
42.78
42.62
42.46
42.29
42.12
41.94
41.76
41.58
41.39
41.19
40.99
40.78
40.57
40.34
40.12
39.88
39.64
39.39
39.12
38.85
38.57
38.28
37.98
37.67
37.34
37
36.64
36.27
35.89
35.49
35.07
34.63
34.18
33.7
33.21
32.69
32.16
31.61
31.04
30.45
29.85
29.23
52.33
52.32
52.3
52.27
52.24
52.2
52.15
52.1
52.04
51.99
51.93
51.86
51.8
51.73
51.66
51.59
51.52
51.45
51.38
51.31
51.23
51.16
51.09
51.01
50.94
50.87
50.79
50.72
50.64
50.57
50.5
50.42
50.35
50.28
50.2
50.13
50.06
49.98
49.91
49.84
49.76
49.69
49.62
49.54
49.47
49.4
49.32
49.25
49.18
49.1
49.03
48.95
48.88
48.8
48.73
48.65
48.58
48.5
48.43
48.35
48.27
48.2
48.12
48.04
47.96
47.88
47.8
47.72
47.64
47.56
47.48
47.4
47.31
47.23
47.15
47.06
46.97
46.89
46.8
46.71
46.62
46.53
46.44
46.35
46.25
46.16
46.06
45.97
45.87
45.77
45.67
45.57
45.46
45.36
45.25
45.15
45.04
44.93
44.81
44.7
44.58
44.47
44.35
44.23
44.1
43.98
43.85
43.72
43.58
43.45
43.31
43.17
43.03
42.88
42.73
42.58
42.42
42.26
42.1
41.93
41.76
41.58
41.4
41.22
41.03
40.84
40.64
40.43
40.22
40
39.78
39.55
39.31
39.07
38.81
38.55
38.28
38
37.71
37.41
37.09
36.77
36.43
36.09
35.72
35.35
34.96
34.55
34.13
33.69
33.23
32.76
32.27
31.77
31.25
30.71
30.16
29.59
29.01
28.43
52.05
52.03
52.01
51.98
51.95
51.9
51.85
51.8
51.74
51.68
51.61
51.55
51.48
51.41
51.34
51.26
51.19
51.12
51.04
50.97
50.89
50.81
50.74
50.66
50.58
50.51
50.43
50.35
50.28
50.2
50.12
50.05
49.97
49.9
49.82
49.74
49.67
49.59
49.52
49.44
49.37
49.29
49.21
49.14
49.06
48.99
48.91
48.84
48.76
48.68
48.61
48.53
48.45
48.38
48.3
48.22
48.14
48.07
47.99
47.91
47.83
47.75
47.67
47.59
47.51
47.43
47.34
47.26
47.18
47.09
47.01
46.92
46.84
46.75
46.66
46.57
46.48
46.39
46.3
46.21
46.12
46.02
45.93
45.83
45.74
45.64
45.54
45.44
45.34
45.23
45.13
45.02
44.92
44.81
44.7
44.58
44.47
44.35
44.24
44.12
44
43.88
43.75
43.62
43.49
43.36
43.23
43.09
42.95
42.81
42.67
42.52
42.37
42.22
42.06
41.9
41.74
41.57
41.4
41.23
41.05
40.87
40.68
40.49
40.29
40.09
39.88
39.67
39.45
39.22
38.99
38.75
38.5
38.25
37.98
37.71
37.43
37.14
36.85
36.54
36.22
35.89
35.54
35.19
34.82
34.44
34.05
33.64
33.22
32.78
32.33
31.86
31.38
30.89
30.38
29.86
29.33
28.78
28.23
27.68
51.75
51.74
51.71
51.68
51.64
51.6
51.54
51.49
51.42
51.36
51.29
51.22
51.15
51.08
51
50.92
50.85
50.77
50.69
50.61
50.53
50.45
50.37
50.29
50.21
50.13
50.06
49.98
49.9
49.82
49.74
49.66
49.58
49.5
49.42
49.35
49.27
49.19
49.11
49.03
48.96
48.88
48.8
48.72
48.64
48.57
48.49
48.41
48.33
48.25
48.17
48.09
48.01
47.94
47.86
47.78
47.7
47.61
47.53
47.45
47.37
47.29
47.21
47.12
47.04
46.95
46.87
46.78
46.7
46.61
46.52
46.43
46.34
46.25
46.16
46.07
45.98
45.89
45.79
45.7
45.6
45.5
45.4
45.31
45.2
45.1
45
44.89
44.79
44.68
44.57
44.46
44.35
44.24
44.12
44.01
43.89
43.77
43.65
43.52
43.4
43.27
43.14
43.01
42.87
42.74
42.6
42.46
42.31
42.16
42.01
41.86
41.71
41.55
41.38
41.22
41.05
40.87
40.7
40.52
40.33
40.14
39.95
39.75
39.54
39.33
39.12
38.89
38.67
38.43
38.19
37.95
37.69
37.43
37.16
36.88
36.6
36.3
36
35.68
35.36
35.02
34.68
34.32
33.95
33.57
33.17
32.77
32.35
31.91
31.47
31.01
30.54
30.06
29.57
29.07
28.55
28.03
27.51
26.98
51.44
51.43
51.41
51.37
51.33
51.28
51.22
51.16
51.1
51.03
50.96
50.89
50.81
50.73
50.65
50.57
50.49
50.41
50.33
50.25
50.17
50.08
50
49.92
49.83
49.75
49.67
49.59
49.51
49.42
49.34
49.26
49.18
49.1
49.02
48.94
48.86
48.78
48.69
48.61
48.53
48.45
48.37
48.29
48.21
48.13
48.05
47.97
47.89
47.81
47.73
47.65
47.56
47.48
47.4
47.32
47.24
47.15
47.07
46.98
46.9
46.82
46.73
46.64
46.56
46.47
46.38
46.29
46.2
46.11
46.02
45.93
45.84
45.75
45.65
45.56
45.46
45.37
45.27
45.17
45.07
44.97
44.87
44.76
44.66
44.55
44.45
44.34
44.23
44.12
44.01
43.89
43.78
43.66
43.54
43.42
43.3
43.17
43.05
42.92
42.79
42.65
42.52
42.38
42.24
42.1
41.96
41.81
41.66
41.51
41.35
41.19
41.03
40.87
40.7
40.53
40.35
40.17
39.99
39.8
39.61
39.41
39.21
39
38.79
38.58
38.35
38.13
37.89
37.65
37.41
37.15
36.89
36.63
36.35
36.07
35.78
35.48
35.17
34.85
34.52
34.18
33.83
33.47
33.1
32.72
32.33
31.93
31.52
31.09
30.65
30.21
29.75
29.28
28.81
28.32
27.83
27.33
26.83
26.33
51.13
51.12
51.09
51.05
51.01
50.96
50.9
50.83
50.77
50.69
50.62
50.54
50.46
50.38
50.3
50.21
50.13
50.05
49.96
49.87
49.79
49.7
49.62
49.53
49.45
49.36
49.28
49.19
49.11
49.02
48.94
48.85
48.77
48.69
48.6
48.52
48.44
48.35
48.27
48.19
48.1
48.02
47.94
47.85
47.77
47.69
47.61
47.52
47.44
47.36
47.27
47.19
47.11
47.02
46.94
46.85
46.77
46.68
46.59
46.51
46.42
46.33
46.24
46.16
46.07
45.98
45.89
45.8
45.7
45.61
45.52
45.42
45.33
45.23
45.13
45.04
44.94
44.84
44.74
44.64
44.53
44.43
44.32
44.22
44.11
44
43.89
43.78
43.66
43.55
43.43
43.31
43.19
43.07
42.95
42.82
42.7
42.57
42.44
42.3
42.17
42.03
41.89
41.75
41.61
41.46
41.31
41.16
41
40.85
40.69
40.52
40.35
40.18
40.01
39.83
39.65
39.47
39.28
39.08
38.89
38.68
38.48
38.27
38.05
37.83
37.6
37.37
37.13
36.88
36.63
36.37
36.11
35.83
35.55
35.27
34.97
34.67
34.36
34.04
33.71
33.37
33.02
32.66
32.29
31.92
31.53
31.13
30.72
30.31
29.88
29.45
29
28.55
28.09
27.63
27.16
26.68
26.21
25.73
50.81
50.79
50.77
50.73
50.68
50.62
50.56
50.5
50.42
50.35
50.27
50.19
50.1
50.02
49.93
49.85
49.76
49.67
49.58
49.49
49.41
49.32
49.23
49.14
49.05
48.96
48.87
48.79
48.7
48.61
48.52
48.44
48.35
48.26
48.18
48.09
48.01
47.92
47.84
47.75
47.67
47.58
47.5
47.41
47.33
47.24
47.15
47.07
46.98
46.9
46.81
46.73
46.64
46.55
46.47
46.38
46.29
46.2
46.11
46.02
45.93
45.84
45.75
45.66
45.57
45.48
45.38
45.29
45.2
45.1
45
44.91
44.81
44.71
44.61
44.51
44.41
44.3
44.2
44.09
43.99
43.88
43.77
43.66
43.55
43.44
43.32
43.21
43.09
42.97
42.85
42.73
42.61
42.48
42.35
42.22
42.09
41.96
41.83
41.69
41.55
41.41
41.26
41.12
40.97
40.82
40.66
40.51
40.35
40.18
40.02
39.85
39.68
39.5
39.32
39.14
38.95
38.76
38.57
38.37
38.17
37.96
37.75
37.53
37.31
37.09
36.85
36.62
36.37
36.12
35.87
35.61
35.34
35.06
34.78
34.49
34.19
33.89
33.57
33.25
32.92
32.59
32.24
31.88
31.52
31.15
30.77
30.37
29.98
29.57
29.15
28.73
28.3
27.87
27.43
26.98
26.53
26.08
25.63
25.18
50.48
50.47
50.44
50.39
50.34
50.29
50.22
50.15
50.07
50
49.91
49.83
49.74
49.65
49.56
49.47
49.38
49.29
49.2
49.11
49.02
48.92
48.83
48.74
48.65
48.56
48.47
48.38
48.29
48.2
48.11
48.02
47.93
47.84
47.75
47.66
47.57
47.49
47.4
47.31
47.22
47.14
47.05
46.96
46.87
46.79
46.7
46.61
46.52
46.43
46.35
46.26
46.17
46.08
45.99
45.9
45.81
45.72
45.63
45.54
45.44
45.35
45.26
45.16
45.07
44.97
44.88
44.78
44.68
44.58
44.49
44.39
44.28
44.18
44.08
43.98
43.87
43.76
43.66
43.55
43.44
43.33
43.22
43.1
42.99
42.87
42.75
42.64
42.52
42.39
42.27
42.14
42.02
41.89
41.76
41.62
41.49
41.35
41.21
41.07
40.93
40.78
40.63
40.48
40.33
40.18
40.02
39.86
39.69
39.53
39.36
39.18
39.01
38.83
38.64
38.46
38.26
38.07
37.87
37.67
37.46
37.25
37.03
36.81
36.59
36.36
36.12
35.88
35.63
35.38
35.12
34.86
34.59
34.31
34.03
33.73
33.44
33.13
32.82
32.5
32.17
31.83
31.49
31.14
30.78
30.41
30.04
29.66
29.27
28.87
28.47
28.06
27.65
27.23
26.8
26.38
25.95
25.52
25.09
24.66
50.15
50.13
50.1
50.06
50
49.94
49.87
49.8
49.72
49.64
49.55
49.46
49.37
49.28
49.19
49.1
49
48.91
48.81
48.72
48.62
48.53
48.43
48.34
48.24
48.15
48.05
47.96
47.87
47.78
47.68
47.59
47.5
47.41
47.32
47.23
47.14
47.05
46.96
46.87
46.78
46.69
46.6
46.51
46.42
46.33
46.24
46.15
46.06
45.97
45.88
45.78
45.69
45.6
45.51
45.42
45.33
45.23
45.14
45.04
44.95
44.85
44.76
44.66
44.56
44.47
44.37
44.27
44.17
44.07
43.97
43.86
43.76
43.65
43.55
43.44
43.33
43.22
43.11
43
42.89
42.78
42.66
42.54
42.43
42.31
42.19
42.06
41.94
41.81
41.69
41.56
41.43
41.29
41.16
41.02
40.88
40.74
40.6
40.46
40.31
40.16
40.01
39.85
39.7
39.54
39.38
39.21
39.04
38.87
38.7
38.52
38.34
38.16
37.97
37.78
37.58
37.39
37.18
36.98
36.77
36.55
36.33
36.11
35.88
35.65
35.41
35.16
34.91
34.66
34.4
34.13
33.86
33.58
33.3
33.01
32.71
32.4
32.09
31.77
31.45
31.12
30.78
30.43
30.08
29.72
29.35
28.98
28.6
28.22
27.82
27.43
27.03
26.63
26.22
25.81
25.4
24.99
24.58
24.18
49.81
49.79
49.76
49.71
49.66
49.59
49.52
49.45
49.36
49.28
49.19
49.1
49
48.91
48.81
48.71
48.62
48.52
48.42
48.32
48.22
48.12
48.03
47.93
47.83
47.74
47.64
47.54
47.45
47.35
47.26
47.16
47.07
46.98
46.88
46.79
46.7
46.6
46.51
46.42
46.33
46.24
46.14
46.05
45.96
45.87
45.78
45.68
45.59
45.5
45.4
45.31
45.22
45.12
45.03
44.94
44.84
44.74
44.65
44.55
44.46
44.36
44.26
44.16
44.06
43.96
43.86
43.76
43.65
43.55
43.45
43.34
43.23
43.13
43.02
42.91
42.8
42.69
42.57
42.46
42.34
42.23
42.11
41.99
41.87
41.74
41.62
41.49
41.37
41.24
41.11
40.97
40.84
40.7
40.57
40.43
40.29
40.14
40
39.85
39.7
39.54
39.39
39.23
39.07
38.91
38.74
38.57
38.4
38.23
38.05
37.87
37.68
37.5
37.31
37.11
36.92
36.71
36.51
36.3
36.09
35.87
35.65
35.42
35.19
34.95
34.71
34.47
34.21
33.96
33.7
33.43
33.16
32.88
32.59
32.3
32.01
31.71
31.4
31.08
30.76
30.43
30.1
29.76
29.41
29.06
28.7
28.34
27.97
27.6
27.22
26.84
26.45
26.07
25.68
25.29
24.9
24.5
24.12
23.73
49.47
49.45
49.41
49.37
49.31
49.24
49.17
49.09
49
48.91
48.82
48.73
48.63
48.53
48.43
48.33
48.23
48.13
48.03
47.92
47.82
47.72
47.62
47.52
47.42
47.32
47.22
47.12
47.03
46.93
46.83
46.74
46.64
46.54
46.45
46.35
46.26
46.16
46.07
45.97
45.88
45.79
45.69
45.6
45.5
45.41
45.31
45.22
45.12
45.03
44.93
44.84
44.74
44.65
44.55
44.45
44.36
44.26
44.16
44.06
43.96
43.86
43.76
43.66
43.56
43.45
43.35
43.25
43.14
43.03
42.93
42.82
42.71
42.6
42.49
42.38
42.26
42.15
42.03
41.92
41.8
41.68
41.56
41.43
41.31
41.18
41.06
40.93
40.8
40.67
40.53
40.4
40.26
40.12
39.98
39.84
39.69
39.54
39.4
39.24
39.09
38.93
38.78
38.61
38.45
38.28
38.12
37.94
37.77
37.59
37.41
37.23
37.04
36.85
36.66
36.46
36.26
36.06
35.85
35.64
35.42
35.2
34.98
34.75
34.52
34.28
34.04
33.79
33.54
33.28
33.02
32.75
32.48
32.2
31.92
31.63
31.34
31.04
30.73
30.42
30.1
29.78
29.45
29.12
28.78
28.44
28.09
27.74
27.38
27.02
26.65
26.28
25.91
25.54
25.17
24.79
24.42
24.05
23.68
23.31
49.12
49.1
49.07
49.02
48.96
48.89
48.81
48.73
48.64
48.55
48.45
48.35
48.25
48.15
48.05
47.94
47.84
47.73
47.63
47.53
47.42
47.32
47.22
47.11
47.01
46.91
46.81
46.71
46.61
46.51
46.41
46.31
46.21
46.11
46.01
45.92
45.82
45.72
45.63
45.53
45.43
45.34
45.24
45.14
45.05
44.95
44.85
44.76
44.66
44.56
44.47
44.37
44.27
44.17
44.07
43.97
43.88
43.78
43.67
43.57
43.47
43.37
43.27
43.16
43.06
42.95
42.85
42.74
42.63
42.52
42.41
42.3
42.19
42.08
41.96
41.85
41.73
41.62
41.5
41.38
41.26
41.13
41.01
40.89
40.76
40.63
40.5
40.37
40.24
40.1
39.96
39.83
39.69
39.54
39.4
39.25
39.11
38.96
38.8
38.65
38.49
38.33
38.17
38.01
37.84
37.67
37.5
37.33
37.15
36.97
36.79
36.6
36.41
36.22
36.02
35.82
35.62
35.41
35.2
34.99
34.77
34.55
34.33
34.1
33.86
33.62
33.38
33.14
32.88
32.63
32.37
32.1
31.83
31.55
31.27
30.99
30.69
30.4
30.1
29.79
29.48
29.16
28.84
28.51
28.18
27.85
27.51
27.17
26.82
26.47
26.12
25.76
25.41
25.05
24.69
24.33
23.98
23.62
23.27
22.92
48.78
48.76
48.72
48.67
48.6
48.53
48.45
48.37
48.27
48.18
48.08
47.98
47.87
47.77
47.66
47.56
47.45
47.34
47.24
47.13
47.02
46.92
46.81
46.7
46.6
46.5
46.39
46.29
46.19
46.08
45.98
45.88
45.78
45.68
45.58
45.48
45.38
45.28
45.18
45.09
44.99
44.89
44.79
44.69
44.59
44.5
44.4
44.3
44.2
44.1
44
43.9
43.8
43.7
43.6
43.5
43.4
43.3
43.19
43.09
42.99
42.88
42.78
42.67
42.56
42.46
42.35
42.24
42.13
42.02
41.9
41.79
41.68
41.56
41.45
41.33
41.21
41.09
40.97
40.85
40.72
40.6
40.47
40.34
40.21
40.08
39.95
39.82
39.68
39.54
39.4
39.26
39.12
38.98
38.83
38.68
38.53
38.38
38.22
38.07
37.91
37.75
37.58
37.41
37.25
37.07
36.9
36.72
36.54
36.36
36.18
35.99
35.8
35.6
35.4
35.2
35
34.79
34.58
34.36
34.15
33.92
33.7
33.47
33.23
32.99
32.75
32.5
32.25
32
31.74
31.47
31.2
30.93
30.65
30.37
30.08
29.79
29.49
29.19
28.88
28.57
28.26
27.94
27.62
27.29
26.96
26.63
26.29
25.96
25.62
25.27
24.93
24.59
24.25
23.9
23.56
23.23
22.89
22.56
48.43
48.41
48.37
48.32
48.25
48.18
48.09
48
47.91
47.81
47.71
47.6
47.5
47.39
47.28
47.17
47.06
46.95
46.84
46.73
46.62
46.51
46.41
46.3
46.19
46.09
45.98
45.87
45.77
45.67
45.56
45.46
45.36
45.25
45.15
45.05
44.95
44.85
44.75
44.65
44.55
44.45
44.35
44.25
44.15
44.05
43.94
43.84
43.74
43.64
43.54
43.44
43.34
43.24
43.13
43.03
42.93
42.82
42.72
42.61
42.51
42.4
42.29
42.18
42.07
41.96
41.85
41.74
41.63
41.52
41.4
41.29
41.17
41.05
40.93
40.81
40.69
40.57
40.45
40.32
40.2
40.07
39.94
39.81
39.68
39.55
39.41
39.27
39.14
39
38.85
38.71
38.57
38.42
38.27
38.12
37.97
37.81
37.65
37.49
37.33
37.17
37
36.83
36.66
36.49
36.31
36.13
35.95
35.77
35.58
35.39
35.2
35
34.8
34.6
34.39
34.18
33.97
33.76
33.54
33.31
33.09
32.86
32.62
32.38
32.14
31.9
31.65
31.39
31.13
30.87
30.6
30.33
30.06
29.78
29.49
29.21
28.91
28.62
28.32
28.01
27.71
27.4
27.08
26.77
26.45
26.12
25.8
25.47
25.14
24.82
24.49
24.16
23.83
23.5
23.18
22.85
22.53
22.22
48.08
48.06
48.02
47.96
47.9
47.82
47.74
47.64
47.55
47.45
47.34
47.23
47.12
47.01
46.9
46.79
46.68
46.56
46.45
46.34
46.23
46.12
46.01
45.9
45.79
45.68
45.57
45.46
45.36
45.25
45.14
45.04
44.93
44.83
44.73
44.62
44.52
44.42
44.32
44.21
44.11
44.01
43.91
43.8
43.7
43.6
43.5
43.4
43.29
43.19
43.09
42.98
42.88
42.78
42.67
42.57
42.46
42.35
42.25
42.14
42.03
41.92
41.81
41.7
41.59
41.48
41.37
41.25
41.14
41.02
40.91
40.79
40.67
40.55
40.43
40.31
40.19
40.06
39.94
39.81
39.68
39.55
39.42
39.29
39.15
39.02
38.88
38.74
38.6
38.46
38.31
38.17
38.02
37.87
37.72
37.57
37.41
37.26
37.1
36.93
36.77
36.61
36.44
36.27
36.09
35.92
35.74
35.56
35.38
35.19
35
34.81
34.62
34.42
34.22
34.01
33.81
33.6
33.38
33.17
32.95
32.73
32.5
32.27
32.03
31.8
31.56
31.31
31.06
30.81
30.55
30.29
30.03
29.76
29.49
29.21
28.94
28.65
28.37
28.08
27.78
27.49
27.19
26.88
26.58
26.27
25.96
25.65
25.33
25.02
24.7
24.38
24.07
23.75
23.44
23.12
22.81
22.5
22.2
21.9
47.73
47.71
47.67
47.61
47.55
47.47
47.38
47.28
47.18
47.08
46.97
46.86
46.75
46.64
46.52
46.41
46.29
46.18
46.06
45.95
45.84
45.72
45.61
45.5
45.39
45.28
45.17
45.06
44.95
44.84
44.73
44.62
44.52
44.41
44.31
44.2
44.1
43.99
43.89
43.78
43.68
43.58
43.47
43.37
43.27
43.16
43.06
42.95
42.85
42.74
42.64
42.53
42.43
42.32
42.22
42.11
42
41.89
41.78
41.68
41.57
41.45
41.34
41.23
41.12
41
40.89
40.77
40.66
40.54
40.42
40.3
40.18
40.06
39.94
39.81
39.69
39.56
39.43
39.3
39.17
39.04
38.91
38.77
38.64
38.5
38.36
38.22
38.08
37.93
37.79
37.64
37.49
37.34
37.18
37.03
36.87
36.71
36.55
36.39
36.22
36.06
35.89
35.71
35.54
35.36
35.18
35
34.82
34.63
34.44
34.25
34.05
33.85
33.65
33.45
33.24
33.03
32.82
32.6
32.38
32.16
31.93
31.7
31.47
31.23
30.99
30.75
30.5
30.25
30
29.74
29.48
29.22
28.95
28.68
28.4
28.12
27.84
27.56
27.27
26.98
26.69
26.4
26.1
25.8
25.5
25.2
24.89
24.59
24.28
23.98
23.67
23.37
23.07
22.77
22.47
22.17