/*--------------------------------*- C++ -*----------------------------------*\
| =========                 |                                                 |
| \\      /  F ield         | OpenFOAM: The Open Source CFD Toolbox           |
|  \\    /   O peration     | Version:  5.x                                   |
|   \\  /    A nd           | Web:      www.OpenFOAM.org                      |
|    \\/     M anipulation  |                                                 |
\*---------------------------------------------------------------------------*/
FoamFile
{
    version     2.0;
    format      ascii;
    class       volScalarField;
    location    "110";
    object      gamma;
}
// * * * * * * * * * * * * * * * * * * * * * * * * * * * * * * * * * * * * * //

dimensions      [0 0 0 0 0 0 0];

internalField   nonuniform List<scalar> 
86400
(
1.041e-05
1.263e-05
1.848e-05
3.228e-05
6.362e-05
9.986e-05
0.0001239
0.0001451
0.0001738
0.0001894
0.0002708
0.0003403
0.0004209
0.0004073
0.0004632
0.0006224
0.001279
0.002379
0.003183
0.003093
0.002868
0.003004
0.003928
0.004554
0.00474
0.005688
0.005307
0.004917
0.004301
0.003934
0.003651
0.003833
0.004111
0.004519
0.005119
0.006561
0.007257
0.007351
0.006195
0.005906
0.005469
0.005979
0.005879
0.004902
0.004437
0.004582
0.005462
0.006208
0.007066
0.006761
0.006773
0.007027
0.007414
0.00802
0.00854
0.009665
0.01096
0.01141
0.01102
0.01043
0.00914
0.009044
0.008782
0.009202
0.01084
0.0134
0.01476
0.01576
0.0143
0.01381
0.01568
0.01951
0.02225
0.02261
0.02262
0.02338
0.02366
0.02657
0.02954
0.02958
0.02861
0.02673
0.026
0.02826
0.03343
0.0365
0.0386
0.0372
0.03719
0.03659
0.033
0.0337
0.03572
0.04194
0.04484
0.0456
0.03971
0.0366
0.03446
0.03225
0.0298
0.02516
0.02097
0.01622
0.01235
0.01184
0.01454
0.01887
0.01694
0.01217
0.007214
0.004832
0.004244
0.004348
0.004165
0.00388
0.003665
0.003519
0.003522
0.003553
0.003541
0.003454
0.003309
0.003101
0.002994
0.002986
0.002918
0.002832
0.002741
0.002589
0.002327
0.002498
0.002647
0.002684
0.002681
0.002748
0.002925
0.003389
0.002204
0.0009922
0.0005131
0.0003749
0.0004533
0.0005704
0.0005539
0.0003809
0.0003346
0.0003073
0.0003058
0.0003413
0.0003914
0.0005795
0.00107
0.001742
0.002621
0.003832
0.004507
0.006531
0.09089
0.9738
1.285e-05
1.395e-05
1.895e-05
3.009e-05
5.972e-05
9.262e-05
0.00011
0.0001142
0.000107
0.0001017
0.0001433
0.0002081
0.0003306
0.0004598
0.0005592
0.0006471
0.001188
0.00232
0.003671
0.005181
0.005567
0.005764
0.006731
0.007885
0.008391
0.008867
0.008447
0.007941
0.00747
0.006632
0.006168
0.00643
0.006968
0.007773
0.008889
0.01122
0.01284
0.01392
0.01305
0.01299
0.01221
0.01268
0.01261
0.0108
0.008987
0.008404
0.008413
0.008728
0.009663
0.009937
0.01054
0.01157
0.01297
0.01424
0.01306
0.01167
0.01043
0.009288
0.008372
0.008385
0.007685
0.007543
0.007084
0.007113
0.008005
0.011
0.01337
0.01568
0.01543
0.01593
0.01811
0.02142
0.02046
0.01839
0.01626
0.01769
0.02205
0.02987
0.03536
0.03567
0.03307
0.03036
0.0317
0.03549
0.04346
0.04877
0.05313
0.05184
0.05342
0.05567
0.05511
0.05842
0.06085
0.06088
0.05726
0.05119
0.04185
0.03657
0.03339
0.03056
0.0302
0.03085
0.03274
0.03035
0.02324
0.01983
0.02241
0.02813
0.0305
0.02615
0.01589
0.0104
0.008649
0.008819
0.008578
0.008255
0.008182
0.008269
0.008784
0.009363
0.0098
0.009915
0.009756
0.009254
0.009
0.009013
0.008716
0.008338
0.007933
0.00743
0.00672
0.007038
0.007208
0.007651
0.00783
0.007263
0.006428
0.0058
0.003635
0.001822
0.001332
0.001072
0.00112
0.001454
0.001583
0.001419
0.001458
0.001575
0.001834
0.001942
0.001979
0.002282
0.003139
0.005403
0.01153
0.02773
0.06413
0.2098
0.5192
0.9497
1.842e-05
1.87e-05
2.348e-05
3.272e-05
5.966e-05
8.491e-05
9.218e-05
8.66e-05
6.915e-05
7.02e-05
0.0001019
0.000188
0.0003238
0.0005416
0.0006143
0.0007713
0.001493
0.003132
0.004462
0.00634
0.006138
0.006033
0.007159
0.008662
0.008476
0.009596
0.01039
0.01173
0.01366
0.01398
0.0131
0.0141
0.01385
0.01292
0.01184
0.01184
0.01194
0.01242
0.01102
0.01127
0.01167
0.01392
0.01548
0.01576
0.01367
0.01279
0.01253
0.0126
0.01354
0.01458
0.01355
0.0118
0.0104
0.009557
0.00803
0.007843
0.007271
0.006439
0.005816
0.005988
0.005933
0.006225
0.006427
0.007345
0.008005
0.009649
0.01135
0.0133
0.01342
0.01466
0.0159
0.01548
0.01278
0.01211
0.01276
0.01843
0.02911
0.0422
0.04896
0.05061
0.04651
0.0413
0.04216
0.04646
0.05847
0.06493
0.07071
0.07041
0.06415
0.05556
0.04577
0.03939
0.03415
0.03595
0.0369
0.03682
0.03498
0.03375
0.03042
0.02849
0.0304
0.03506
0.04206
0.04208
0.03548
0.03149
0.03266
0.04108
0.04942
0.04628
0.03348
0.02558
0.02104
0.02125
0.02106
0.02113
0.01969
0.01748
0.01586
0.01479
0.01463
0.01531
0.01529
0.01462
0.01427
0.01431
0.01383
0.01318
0.01228
0.01152
0.01058
0.01067
0.009939
0.009055
0.008732
0.008062
0.007723
0.007729
0.006316
0.004474
0.003867
0.003526
0.003831
0.004776
0.005442
0.005104
0.004798
0.004802
0.005385
0.005587
0.006042
0.006941
0.01046
0.02156
0.05141
0.1249
0.306
0.7101
0.8739
0.9829
2.857e-05
2.836e-05
3.078e-05
3.582e-05
5.502e-05
6.696e-05
6.183e-05
5.214e-05
4.213e-05
5.134e-05
6.887e-05
8.766e-05
0.000103
0.0002045
0.0002767
0.0004825
0.00101
0.001464
0.001412
0.001493
0.001261
0.001057
0.001592
0.00232
0.002379
0.003158
0.004339
0.005976
0.008984
0.01174
0.01143
0.01379
0.01447
0.01393
0.01234
0.01132
0.01067
0.01108
0.009527
0.01054
0.0129
0.01886
0.02768
0.03508
0.02581
0.01777
0.01162
0.008431
0.007555
0.008558
0.007399
0.005947
0.005452
0.005229
0.004483
0.004524
0.004087
0.003706
0.003806
0.004582
0.005107
0.005983
0.006821
0.007584
0.007939
0.009187
0.009983
0.01092
0.01106
0.0133
0.0162
0.01571
0.01378
0.01423
0.0138
0.02057
0.03178
0.0408
0.04005
0.04119
0.03701
0.03349
0.03391
0.03529
0.03847
0.03986
0.04146
0.04082
0.0397
0.04038
0.04169
0.04255
0.0386
0.04066
0.04018
0.03913
0.03791
0.03773
0.03394
0.03382
0.03487
0.03672
0.04583
0.047
0.03756
0.03221
0.0292
0.0353
0.04527
0.05264
0.04184
0.03587
0.02971
0.03017
0.03163
0.03496
0.03429
0.03132
0.02802
0.02554
0.02427
0.02607
0.0264
0.0255
0.02504
0.02516
0.02443
0.02345
0.02245
0.0214
0.02015
0.02
0.01807
0.01632
0.01403
0.01078
0.008462
0.006796
0.006226
0.00642
0.006689
0.006803
0.007388
0.008802
0.01122
0.01276
0.01358
0.01522
0.01957
0.02287
0.03002
0.03696
0.05492
0.1098
0.2673
0.5409
0.7771
0.9431
0.9896
0.9991
5.248e-05
5.65e-05
5.587e-05
5.79e-05
6.614e-05
5.972e-05
4.01e-05
3.543e-05
3.385e-05
4.809e-05
5.49e-05
4.261e-05
2.894e-05
5.493e-05
8.966e-05
0.0002657
0.0008198
0.0007394
0.0003721
0.0003204
0.0003109
0.0002771
0.000546
0.0007506
0.000768
0.001305
0.002679
0.005899
0.01136
0.01397
0.009048
0.007619
0.006196
0.005413
0.005058
0.004615
0.003915
0.004642
0.005273
0.008076
0.01056
0.01338
0.01176
0.01016
0.005813
0.003775
0.002141
0.001723
0.001948
0.003204
0.003708
0.003881
0.003644
0.003786
0.003526
0.003738
0.003585
0.003453
0.004375
0.006298
0.008297
0.01072
0.01361
0.01511
0.01319
0.01098
0.009869
0.00884
0.008081
0.009373
0.01144
0.01027
0.01039
0.01214
0.01395
0.01879
0.02704
0.02855
0.02587
0.02791
0.02544
0.02283
0.02379
0.02658
0.03122
0.03585
0.03822
0.03565
0.03366
0.03386
0.0336
0.03838
0.03879
0.04289
0.04211
0.04368
0.03535
0.03212
0.02885
0.02554
0.01954
0.01378
0.01262
0.01358
0.0148
0.02097
0.02558
0.02823
0.034
0.04882
0.04292
0.04164
0.03702
0.03831
0.03526
0.03216
0.02506
0.0188
0.01386
0.01297
0.01215
0.01292
0.01296
0.01267
0.01266
0.01294
0.01302
0.01302
0.01306
0.01302
0.01279
0.01203
0.009988
0.008432
0.006192
0.004589
0.003831
0.003899
0.004152
0.005255
0.006259
0.007134
0.008341
0.01074
0.0155
0.01976
0.02377
0.02763
0.03888
0.05229
0.08577
0.1408
0.2658
0.4925
0.7032
0.8259
0.9264
0.9851
0.9984
0.9999
8.054e-05
0.0001017
9.759e-05
9.692e-05
7.402e-05
5.12e-05
2.964e-05
2.939e-05
3.759e-05
6.909e-05
7.663e-05
3.545e-05
1.475e-05
2.042e-05
5.886e-05
0.0002139
0.0006248
0.0004483
0.0002053
0.0002028
0.0002877
0.0003129
0.0006853
0.000444
0.0002539
0.0002708
0.0004966
0.001221
0.003616
0.004191
0.002371
0.001771
0.001459
0.001411
0.001865
0.001998
0.001473
0.00153
0.001749
0.001974
0.001648
0.001474
0.0008022
0.0004991
0.0002706
0.000121
3.342e-05
2.461e-05
3.233e-05
7.559e-05
0.0001295
0.0002403
0.0003877
0.0005585
0.0006671
0.0006597
0.0005755
0.0006914
0.001662
0.004035
0.007747
0.01027
0.009767
0.009151
0.007437
0.005944
0.007401
0.008504
0.008266
0.01002
0.01299
0.01116
0.01148
0.01294
0.0128
0.01404
0.01511
0.01534
0.01588
0.02127
0.02558
0.0315
0.03729
0.04408
0.0509
0.05585
0.05532
0.04986
0.04918
0.05459
0.0579
0.05123
0.03486
0.02449
0.01433
0.009767
0.005578
0.004818
0.004293
0.005364
0.005534
0.005016
0.004581
0.004641
0.004698
0.006757
0.007642
0.009731
0.01314
0.01524
0.01241
0.01235
0.01192
0.01335
0.0125
0.01114
0.008723
0.00688
0.005517
0.005395
0.00494
0.004971
0.004857
0.004812
0.004882
0.005033
0.005241
0.005503
0.005823
0.006144
0.006348
0.006276
0.005792
0.005646
0.004683
0.003911
0.003221
0.003467
0.00398
0.00551
0.006896
0.008341
0.01048
0.01439
0.02249
0.03249
0.04694
0.07058
0.1143
0.2013
0.3902
0.5786
0.743
0.8407
0.9201
0.9623
0.9882
0.9976
0.9997
1
0.000105
0.0001548
0.0001364
0.0001173
7.455e-05
4.844e-05
2.822e-05
4.008e-05
8.512e-05
0.0001841
0.0001741
6.171e-05
1.395e-05
1.411e-05
2.722e-05
0.0001272
0.0005326
0.0006725
0.0004458
0.0006038
0.001097
0.001133
0.001812
0.0005729
0.0002121
0.000149
0.0002235
0.0004654
0.00164
0.001896
0.001073
0.0006457
0.0005973
0.0007398
0.00111
0.001126
0.0006347
0.0005328
0.0007193
0.0007839
0.0004538
0.0002283
6.321e-05
2.39e-05
1.202e-05
3.219e-06
6.248e-07
4.182e-07
6.066e-07
2.056e-06
4.957e-06
1.15e-05
2.369e-05
4.473e-05
6.308e-05
6.511e-05
6.481e-05
0.000107
0.0004677
0.001682
0.004986
0.008223
0.008112
0.008754
0.009192
0.007457
0.01032
0.01258
0.01244
0.01266
0.01713
0.01265
0.01196
0.0129
0.01344
0.01611
0.01771
0.0188
0.01956
0.02708
0.03848
0.05938
0.07478
0.07973
0.0965
0.1238
0.15
0.1767
0.2067
0.2314
0.1848
0.1419
0.08013
0.04568
0.01768
0.008836
0.003809
0.003083
0.002339
0.003624
0.004063
0.003626
0.003459
0.002861
0.002161
0.002169
0.002146
0.001983
0.003007
0.003471
0.003498
0.003998
0.004144
0.004645
0.004572
0.004331
0.003481
0.003141
0.00274
0.002947
0.002895
0.002922
0.002886
0.00285
0.00289
0.002977
0.003096
0.003257
0.003492
0.003792
0.004135
0.004525
0.00485
0.005443
0.005229
0.005433
0.006213
0.008126
0.01118
0.01741
0.02376
0.03163
0.04257
0.06014
0.09101
0.1378
0.2329
0.393
0.5313
0.6762
0.7775
0.8673
0.9419
0.9746
0.9903
0.9964
0.9989
0.9997
0.9999
1
0.0001644
0.0002332
0.0001686
0.0001303
8.589e-05
5.945e-05
4.477e-05
9.699e-05
0.0001928
0.0002664
0.0002393
7.534e-05
1.642e-05
1.524e-05
2.783e-05
0.0001164
0.0005431
0.001208
0.001806
0.004506
0.007616
0.007105
0.008141
0.00252
0.0007251
0.0002463
0.0002737
0.0003805
0.001033
0.001258
0.0008667
0.0007911
0.0007991
0.001048
0.00139
0.001258
0.0006593
0.0006184
0.001028
0.0006772
0.0002441
6.053e-05
1.384e-05
3.735e-06
2.207e-06
4.548e-07
7.866e-08
5.226e-08
8.878e-08
3.331e-07
9.877e-07
3.161e-06
1.025e-05
2.802e-05
4.063e-05
2.438e-05
1.487e-05
1.834e-05
7.746e-05
0.0003626
0.001817
0.004772
0.006213
0.008158
0.009824
0.008971
0.01254
0.01472
0.01321
0.0115
0.01373
0.01143
0.0107
0.01154
0.01381
0.01664
0.01991
0.03558
0.06052
0.1821
0.4966
0.7285
0.8069
0.833
0.8623
0.91
0.9467
0.9613
0.9699
0.9742
0.9697
0.9602
0.9279
0.8034
0.3328
0.07279
0.0179
0.01278
0.009916
0.01092
0.007924
0.008782
0.005928
0.002983
0.001308
0.0009115
0.001146
0.001176
0.001609
0.001068
0.0008439
0.0008199
0.001048
0.00145
0.001619
0.001658
0.001955
0.002317
0.002521
0.003305
0.003687
0.003925
0.004153
0.004276
0.004342
0.004504
0.004748
0.005048
0.005515
0.006236
0.00737
0.009174
0.01194
0.01595
0.01871
0.02104
0.02419
0.02984
0.04096
0.06481
0.09611
0.1475
0.233
0.3701
0.5008
0.6313
0.7558
0.8427
0.8937
0.9385
0.964
0.9833
0.9942
0.998
0.9993
0.9998
0.9999
1
1
1
0.0002365
0.0002754
0.0001736
0.0001259
8.598e-05
7.084e-05
8.586e-05
0.0001654
0.0002253
0.0002361
0.000155
6.576e-05
3.241e-05
3.98e-05
7.994e-05
0.0002317
0.0005409
0.001152
0.002037
0.003327
0.006142
0.00874
0.01496
0.009236
0.003909
0.001575
0.0008958
0.0008959
0.001489
0.001839
0.001526
0.001903
0.001756
0.002017
0.001716
0.00104
0.0004031
0.0004746
0.0007638
0.000305
8.17e-05
1.645e-05
4.412e-06
1.503e-06
1.49e-06
4.96e-07
1.603e-07
1.248e-07
2.114e-07
3.299e-07
6.533e-07
1.488e-06
4.01e-06
1.028e-05
1.636e-05
1.109e-05
5.994e-06
6.271e-06
1.985e-05
0.0001069
0.0008468
0.003535
0.00712
0.01034
0.01137
0.008218
0.008923
0.0101
0.008665
0.007521
0.008724
0.007989
0.008196
0.01093
0.0203
0.04257
0.08573
0.2581
0.5847
0.8358
0.9413
0.9775
0.9884
0.9923
0.9955
0.998
0.9991
0.9992
0.9991
0.9986
0.9975
0.9961
0.9934
0.9796
0.9272
0.8221
0.6295
0.4614
0.2683
0.171
0.09121
0.07503
0.04063
0.01568
0.006712
0.003249
0.002858
0.002364
0.002202
0.0008163
0.0005054
0.00031
0.0003181
0.0004371
0.0007333
0.001395
0.002691
0.00354
0.003769
0.004074
0.004281
0.004923
0.00571
0.006378
0.006791
0.007207
0.007973
0.009023
0.01056
0.01294
0.01702
0.02434
0.03674
0.05491
0.07929
0.1133
0.1648
0.2485
0.3407
0.4488
0.5562
0.6827
0.7917
0.8678
0.9047
0.9337
0.9598
0.9773
0.9865
0.9927
0.9963
0.9985
0.9995
0.9999
0.9999
1
1
1
1
1
0.0002105
0.0002113
0.0001484
0.0001175
0.0001013
0.0001107
0.0001235
0.0001588
0.0001568
0.0001391
8.088e-05
5.894e-05
6.407e-05
0.0001138
0.0002719
0.0005185
0.001098
0.001181
0.001335
0.001105
0.001662
0.003107
0.008394
0.01282
0.009891
0.004669
0.001881
0.001599
0.001568
0.00231
0.003041
0.005112
0.004892
0.004889
0.002238
0.001024
0.0005319
0.0006908
0.0006389
0.0001518
3.23e-05
6.23e-06
2.519e-06
1.733e-06
2.166e-06
1.055e-06
7.516e-07
8.333e-07
8.501e-07
6.479e-07
6.189e-07
7.251e-07
2.129e-06
7.573e-06
1.442e-05
1.252e-05
8.873e-06
8.276e-06
1.8e-05
9.24e-05
0.0006148
0.003071
0.006158
0.008737
0.008587
0.005762
0.004713
0.006023
0.006517
0.007883
0.01234
0.01668
0.02821
0.06164
0.128
0.2655
0.5133
0.7487
0.8842
0.9622
0.9893
0.9968
0.9986
0.9992
0.9996
0.9999
0.9999
0.9999
0.9999
0.9998
0.9997
0.9996
0.9994
0.9981
0.994
0.984
0.9707
0.9551
0.931
0.8885
0.8204
0.7717
0.6403
0.3287
0.097
0.04211
0.0281
0.01967
0.01302
0.003422
0.001271
0.0004418
0.0002824
0.0001982
0.0003145
0.0007688
0.002363
0.004953
0.007409
0.00773
0.008884
0.01249
0.01614
0.02019
0.0258
0.03303
0.04555
0.0629
0.08422
0.1064
0.1414
0.1883
0.2168
0.2604
0.3587
0.5115
0.661
0.7758
0.8175
0.8481
0.882
0.9252
0.9593
0.9801
0.9879
0.9923
0.9955
0.9975
0.9985
0.9992
0.9996
0.9998
1
1
1
1
1
1
1
1
0.0001848
0.0001637
0.0001391
0.0001512
0.0001795
0.0001333
7.578e-05
5.624e-05
4.132e-05
4.229e-05
4.637e-05
6.116e-05
0.0001431
0.0004181
0.0007808
0.001331
0.001623
0.0008737
0.000653
0.0003518
0.0004992
0.0008675
0.003782
0.01165
0.01677
0.01124
0.007601
0.005225
0.00334
0.0039
0.003967
0.004497
0.00321
0.002529
0.001183
0.0005792
0.0004403
0.0008496
0.0006101
0.0001591
2.561e-05
6.042e-06
1.877e-06
1.264e-06
1.169e-06
1.318e-06
3.911e-06
8.34e-06
8.713e-06
3.28e-06
9.317e-07
4.957e-07
1.469e-06
9.093e-06
3.459e-05
7.151e-05
7.323e-05
5.775e-05
8.413e-05
0.0003431
0.001414
0.004398
0.007342
0.009136
0.007377
0.005268
0.004327
0.006661
0.01045
0.01896
0.03543
0.08835
0.1942
0.4724
0.667
0.7781
0.8626
0.9243
0.9647
0.9881
0.9966
0.9988
0.9995
0.9997
0.9999
1
1
1
1
0.9999
0.9999
0.9999
0.9999
0.9998
0.9995
0.9988
0.9976
0.9955
0.9931
0.9859
0.9736
0.9604
0.9368
0.9001
0.8532
0.7716
0.6588
0.4957
0.2618
0.08763
0.03293
0.008237
0.002786
0.001088
0.001246
0.002505
0.007504
0.01494
0.0237
0.02558
0.0317
0.04859
0.06725
0.08849
0.1221
0.1666
0.232
0.3247
0.4453
0.5365
0.635
0.7132
0.7301
0.7535
0.805
0.8692
0.9252
0.962
0.9738
0.9801
0.9849
0.9909
0.9954
0.9978
0.9987
0.9992
0.9995
0.9997
0.9998
0.9999
0.9999
1
1
1
1
1
1
1
1
1
0.000182
0.0001601
0.00016
0.0002032
0.0002492
0.0001739
6.36e-05
3.34e-05
1.862e-05
3.215e-05
5.335e-05
0.000185
0.0006061
0.001243
0.001971
0.003118
0.002458
0.001373
0.0007584
0.0003242
0.0004373
0.0009767
0.004629
0.01338
0.02112
0.01574
0.01386
0.009658
0.007116
0.006804
0.006321
0.005201
0.002991
0.001661
0.001097
0.0006797
0.000674
0.001428
0.0006859
0.0001533
2.156e-05
3.547e-06
8.34e-07
5.95e-07
3.991e-07
7.549e-07
3.474e-06
1.567e-05
1.735e-05
6.025e-06
1.08e-06
5.735e-07
2.108e-06
2.01e-05
0.0001166
0.0002689
0.0003479
0.0003582
0.0004756
0.001208
0.002103
0.003381
0.003998
0.004736
0.004307
0.00574
0.00803
0.01911
0.04636
0.1204
0.2985
0.5923
0.7553
0.8546
0.8974
0.9231
0.9467
0.968
0.9849
0.9943
0.998
0.9992
0.9996
0.9998
0.9999
0.9999
1
1
0.9999
0.9999
0.9999
0.9999
0.9999
0.9999
0.9997
0.9992
0.9985
0.9975
0.9965
0.994
0.991
0.9886
0.9852
0.9811
0.9759
0.9651
0.9532
0.9436
0.9299
0.9129
0.8825
0.7759
0.5344
0.1304
0.05136
0.04459
0.06895
0.09559
0.1309
0.1365
0.1644
0.2178
0.2852
0.3879
0.5439
0.7014
0.8233
0.8767
0.9152
0.9309
0.9447
0.9572
0.9617
0.9654
0.9748
0.9855
0.9925
0.9964
0.9976
0.9982
0.9987
0.9991
0.9995
0.9997
0.9998
0.9999
0.9999
0.9999
1
1
1
1
1
1
1
1
1
1
1
1
0.0001659
0.0001654
0.0001714
0.0001964
0.000261
0.0001908
6.406e-05
3.414e-05
3.411e-05
7.001e-05
0.0001812
0.0007648
0.001607
0.002694
0.003369
0.003545
0.002617
0.001621
0.000809
0.0003747
0.0004697
0.00107
0.003946
0.009184
0.0155
0.01373
0.01644
0.01384
0.01277
0.01115
0.01091
0.007767
0.004996
0.003329
0.002183
0.001494
0.001571
0.002673
0.0009787
0.0002595
4.516e-05
8.009e-06
1.343e-06
1.013e-06
6.097e-07
1.479e-06
9.414e-06
6.145e-05
5.902e-05
2.308e-05
2.843e-06
1.124e-06
2.908e-06
2.647e-05
0.0001299
0.0003731
0.0006851
0.0009221
0.001522
0.003005
0.003428
0.003786
0.003456
0.005078
0.008421
0.01936
0.0435
0.1435
0.4219
0.6839
0.8143
0.8795
0.9152
0.9399
0.9541
0.9672
0.9777
0.9861
0.9922
0.9959
0.9979
0.9988
0.9992
0.9994
0.9995
0.9997
0.9997
0.9997
0.9998
0.9998
0.9999
0.9999
0.9998
0.9998
0.9996
0.9993
0.9988
0.9983
0.9979
0.9973
0.9968
0.9966
0.9965
0.9962
0.9957
0.9935
0.9906
0.9883
0.989
0.9914
0.992
0.9886
0.9769
0.9362
0.8613
0.8
0.7676
0.7739
0.7915
0.794
0.8237
0.8497
0.8721
0.895
0.9291
0.9605
0.9811
0.9885
0.9929
0.9944
0.9955
0.9964
0.9969
0.9973
0.9981
0.9988
0.9993
0.9996
0.9997
0.9998
0.9998
0.9999
0.9999
0.9999
1
1
1
1
1
1
1
1
1
1
1
1
1
1
1
1
0.000248
0.0002437
0.0002559
0.0002408
0.0002883
0.0002678
0.000125
0.0001118
0.0001189
0.0002555
0.0005922
0.001784
0.002308
0.002786
0.002535
0.002329
0.001927
0.001291
0.0007856
0.0005842
0.0008222
0.00169
0.003642
0.005824
0.00684
0.006086
0.008498
0.008273
0.00955
0.01138
0.01314
0.01134
0.009585
0.006382
0.003716
0.002228
0.001844
0.002672
0.00158
0.0008121
0.0002342
5.966e-05
1.22e-05
9.102e-06
5.849e-06
1.354e-05
5.742e-05
0.000329
0.0003774
0.0002106
3.476e-05
1.712e-05
3.133e-05
0.0001254
0.0003918
0.0007985
0.001205
0.001821
0.002708
0.004304
0.004794
0.005722
0.008325
0.02129
0.05761
0.1825
0.4798
0.7127
0.83
0.8953
0.9351
0.9557
0.9649
0.9711
0.977
0.9829
0.9878
0.9922
0.9953
0.9974
0.9984
0.999
0.9993
0.9994
0.9995
0.9995
0.9995
0.9996
0.9998
0.9999
0.9999
0.9999
0.9999
0.9998
0.9997
0.9994
0.9992
0.9991
0.9992
0.9991
0.999
0.9989
0.999
0.999
0.9989
0.9985
0.998
0.9975
0.9981
0.9987
0.9991
0.999
0.9985
0.9962
0.9902
0.9801
0.9683
0.9657
0.9691
0.9747
0.9809
0.9848
0.9874
0.9896
0.9937
0.9967
0.9986
0.9992
0.9995
0.9996
0.9996
0.9997
0.9997
0.9997
0.9998
0.9999
0.9999
0.9999
0.9999
1
1
1
1
1
1
1
1
1
1
1
1
1
1
1
1
1
1
1
1
0.9999
0.0005444
0.0005201
0.0005757
0.0003051
0.0002722
0.0001906
0.0001482
0.0002839
0.0005916
0.0006811
0.0008806
0.001253
0.001507
0.001751
0.001722
0.001052
0.0003619
0.0001257
5.754e-05
4.329e-05
8.795e-05
0.0002772
0.0008685
0.001864
0.002857
0.002943
0.003839
0.003741
0.003973
0.004225
0.005166
0.006867
0.009225
0.007709
0.004448
0.002408
0.001722
0.002656
0.00258
0.002531
0.001529
0.0006669
0.0002158
0.0001716
0.0001106
0.0002446
0.0006069
0.0021
0.002562
0.001835
0.0005665
0.0002657
0.0002766
0.0004796
0.0009791
0.001393
0.001913
0.002715
0.004233
0.007301
0.01294
0.02433
0.0541
0.1793
0.479
0.7029
0.8173
0.8863
0.924
0.9474
0.9636
0.9744
0.9793
0.983
0.9864
0.9892
0.9915
0.9943
0.9967
0.9985
0.9993
0.9997
0.9998
0.9998
0.9998
0.9998
0.9998
0.9998
0.9998
0.9999
0.9999
0.9999
0.9998
0.9997
0.9996
0.9995
0.9996
0.9996
0.9997
0.9996
0.9995
0.9994
0.9994
0.9995
0.9995
0.9994
0.9993
0.999
0.9991
0.9992
0.9994
0.9994
0.9994
0.9992
0.9988
0.998
0.9971
0.9967
0.9971
0.9979
0.9985
0.9988
0.999
0.9992
0.9994
0.9997
0.9998
0.9999
0.9999
0.9999
0.9999
0.9999
0.9999
1
1
1
1
1
1
1
1
1
1
1
1
1
1
1
1
1
1
1
1
1
1
1
1
1
1
0.9999
0.00113
0.001196
0.001536
0.000523
0.0002969
0.0001982
0.0002613
0.0008268
0.001944
0.001423
0.0009519
0.0006603
0.0005002
0.0009772
0.0007001
0.0001873
4.466e-05
1.087e-05
4.989e-06
4.191e-06
1.307e-05
7.833e-05
0.0003871
0.00118
0.002615
0.002598
0.003182
0.003329
0.003034
0.00301
0.004048
0.006871
0.01149
0.01212
0.007152
0.003562
0.002602
0.003522
0.004474
0.006273
0.00715
0.005232
0.002959
0.002736
0.00186
0.001701
0.00204
0.00359
0.005321
0.006699
0.005148
0.003094
0.00276
0.002332
0.003062
0.003303
0.004485
0.006882
0.0145
0.02584
0.06569
0.1591
0.3981
0.6634
0.7938
0.8622
0.9111
0.9434
0.9594
0.9695
0.976
0.9827
0.9871
0.9905
0.9922
0.993
0.993
0.9955
0.9977
0.9992
0.9997
0.9999
0.9999
0.9999
0.9999
0.9999
0.9999
0.9998
0.9997
0.9997
0.9997
0.9997
0.9996
0.9995
0.9995
0.9996
0.9997
0.9997
0.9998
0.9997
0.9996
0.9995
0.9996
0.9996
0.9997
0.9996
0.9995
0.9993
0.9994
0.9994
0.9995
0.9995
0.9996
0.9996
0.9995
0.9994
0.9994
0.9994
0.9996
0.9997
0.9998
0.9998
0.9999
0.9999
0.9999
0.9999
1
1
1
1
1
1
1
1
1
1
1
1
1
1
1
1
1
1
1
1
1
1
1
1
1
1
1
1
1
1
1
1
1
1
0.001822
0.002157
0.003906
0.001262
0.0003994
0.0002098
0.0003948
0.001269
0.002962
0.002056
0.0008923
0.0005005
0.0004386
0.0008834
0.000266
3.731e-05
8.477e-06
2.549e-06
1.877e-06
2.044e-06
8.523e-06
5.516e-05
0.0003204
0.001214
0.003941
0.003364
0.00436
0.004197
0.002943
0.002419
0.002785
0.005133
0.009561
0.01151
0.007938
0.005122
0.005077
0.006275
0.00917
0.01276
0.01674
0.01672
0.01488
0.01136
0.006883
0.004076
0.003264
0.004036
0.006517
0.00895
0.008494
0.006304
0.006003
0.005628
0.008654
0.01089
0.01684
0.0297
0.06671
0.147
0.4077
0.6278
0.7792
0.8719
0.9282
0.9605
0.9815
0.9896
0.9924
0.9921
0.9898
0.989
0.9913
0.9936
0.9946
0.9942
0.9929
0.9954
0.9979
0.9993
0.9998
0.9999
0.9999
0.9999
0.9999
0.9999
0.9998
0.9995
0.9993
0.9993
0.9994
0.9996
0.9997
0.9997
0.9997
0.9997
0.9997
0.9997
0.9996
0.9995
0.9994
0.9993
0.9994
0.9995
0.9995
0.9996
0.9997
0.9996
0.9996
0.9995
0.9994
0.9994
0.9995
0.9996
0.9997
0.9998
0.9998
0.9999
0.9999
0.9999
1
1
1
1
1
1
1
1
1
1
1
1
1
1
1
1
1
1
1
1
1
1
1
1
1
1
1
1
1
1
1
1
1
1
1
1
1
1
1
1
0.002357
0.00328
0.005627
0.002002
0.0005417
0.0004419
0.0007831
0.002583
0.00377
0.002186
0.0007351
0.0003437
0.0002929
0.0004402
6.414e-05
1.127e-05
4.486e-06
2.863e-06
3.777e-06
5.19e-06
2.149e-05
0.0001006
0.0006527
0.00234
0.007185
0.005194
0.005736
0.005407
0.00412
0.003866
0.004079
0.006163
0.01064
0.01207
0.008979
0.007369
0.008927
0.01068
0.01314
0.01563
0.02078
0.02446
0.03268
0.02728
0.0161
0.007537
0.004098
0.003476
0.005087
0.007997
0.009773
0.01096
0.01468
0.01862
0.02844
0.04676
0.08717
0.1545
0.3788
0.605
0.7565
0.8519
0.9282
0.9683
0.9883
0.995
0.9978
0.9985
0.9987
0.9981
0.9967
0.995
0.9949
0.995
0.995
0.995
0.9931
0.9954
0.9976
0.9991
0.9995
0.9996
0.9996
0.9997
0.9996
0.9995
0.999
0.9981
0.9971
0.9977
0.9985
0.9994
0.9997
0.9997
0.9997
0.9996
0.9992
0.9988
0.9983
0.998
0.9979
0.9983
0.9989
0.9991
0.9993
0.9994
0.9995
0.9996
0.9997
0.9996
0.9996
0.9996
0.9996
0.9997
0.9998
0.9999
0.9999
0.9999
1
1
1
1
1
1
1
1
1
1
1
1
1
1
1
1
1
1
1
1
1
1
1
1
1
1
1
1
1
1
1
1
1
1
1
1
1
1
1
1
1
1
0.002431
0.003719
0.005152
0.001993
0.0004808
0.0005628
0.001338
0.005037
0.005872
0.003151
0.001079
0.0004184
0.0002315
0.0002262
3.207e-05
8.269e-06
9.131e-06
1.469e-05
2.801e-05
4.257e-05
0.000142
0.0004674
0.002572
0.00808
0.01921
0.01186
0.01055
0.007936
0.005577
0.004662
0.005148
0.007473
0.01282
0.01538
0.01262
0.01166
0.01565
0.01945
0.01968
0.01647
0.01511
0.01452
0.01884
0.01902
0.014
0.008652
0.006268
0.004656
0.004943
0.007724
0.01092
0.01751
0.03323
0.0535
0.08349
0.1551
0.3237
0.5444
0.7289
0.827
0.9082
0.9549
0.9825
0.9933
0.9978
0.9989
0.9995
0.9995
0.9995
0.9991
0.9981
0.9959
0.9946
0.9931
0.9922
0.9934
0.9917
0.9943
0.9959
0.9971
0.9974
0.9975
0.9966
0.9966
0.9952
0.9933
0.9899
0.9863
0.9861
0.9915
0.995
0.9982
0.9991
0.9994
0.9993
0.9989
0.9969
0.9945
0.9921
0.9913
0.9917
0.9939
0.9958
0.9968
0.9975
0.9983
0.9989
0.9994
0.9995
0.9996
0.9997
0.9997
0.9997
0.9998
0.9998
0.9999
0.9999
1
1
1
1
1
1
1
1
1
1
1
1
1
1
1
1
1
1
1
1
1
1
1
1
1
1
1
1
1
1
1
1
1
1
1
1
1
1
1
1
1
1
1
0.002922
0.003828
0.004469
0.002017
0.0005381
0.0009285
0.001984
0.006022
0.006834
0.004844
0.002002
0.0009771
0.0004579
0.0003022
5.742e-05
2.531e-05
5.328e-05
0.000127
0.0002726
0.0004041
0.001174
0.002613
0.007829
0.01712
0.02449
0.01504
0.01111
0.008629
0.00657
0.005848
0.006418
0.009516
0.01678
0.0223
0.02007
0.01816
0.02017
0.01955
0.01546
0.01049
0.006936
0.006045
0.007427
0.01071
0.01341
0.01419
0.01367
0.01035
0.009504
0.01115
0.01655
0.0272
0.06313
0.1135
0.2291
0.4621
0.6414
0.7606
0.8694
0.9382
0.9776
0.9904
0.9961
0.9981
0.9992
0.9995
0.9997
0.9996
0.9995
0.9994
0.9988
0.9976
0.9952
0.9905
0.9848
0.9885
0.9873
0.9898
0.9895
0.987
0.98
0.975
0.9638
0.9615
0.9549
0.9424
0.924
0.9104
0.9228
0.9535
0.9729
0.9902
0.9956
0.9971
0.9966
0.994
0.9837
0.9723
0.9665
0.9691
0.976
0.9843
0.9905
0.9937
0.9952
0.9959
0.9973
0.9983
0.999
0.9993
0.9995
0.9996
0.9997
0.9997
0.9998
0.9998
0.9999
0.9999
1
1
1
1
1
1
1
1
1
1
1
1
1
1
1
1
1
1
1
1
1
1
1
1
1
1
1
1
1
1
1
1
1
1
1
1
1
1
1
1
1
1
0.003797
0.00435
0.004952
0.001932
0.0006242
0.0009536
0.001441
0.004267
0.006115
0.006409
0.003313
0.002753
0.001616
0.0009728
0.0002671
0.0001425
0.0002377
0.0004574
0.0008961
0.001875
0.00468
0.008217
0.0139
0.01675
0.01361
0.01029
0.01035
0.007427
0.005509
0.004452
0.003793
0.005169
0.0112
0.01991
0.02337
0.02269
0.02183
0.02025
0.01538
0.01051
0.006047
0.004554
0.004964
0.007623
0.01304
0.02089
0.02736
0.02397
0.02512
0.02647
0.03943
0.06123
0.1439
0.2682
0.5045
0.672
0.7883
0.868
0.9383
0.9774
0.9934
0.9972
0.9987
0.9989
0.9992
0.9992
0.9993
0.9991
0.999
0.999
0.9986
0.9972
0.9933
0.9808
0.9639
0.973
0.9722
0.9704
0.9592
0.934
0.8842
0.8559
0.8217
0.7817
0.735
0.7054
0.6852
0.683
0.7226
0.7728
0.8257
0.9081
0.9499
0.9657
0.9665
0.9559
0.9259
0.9054
0.9045
0.9125
0.9308
0.949
0.969
0.977
0.982
0.9848
0.99
0.9933
0.9961
0.9975
0.9984
0.9989
0.9993
0.9995
0.9997
0.9997
0.9998
0.9999
0.9999
0.9999
1
1
1
1
1
1
1
1
1
1
1
1
1
1
1
1
1
1
1
1
1
1
1
1
1
1
1
1
1
1
1
1
1
1
1
1
1
1
0.9999
0.9999
0.00494
0.005126
0.005497
0.001942
0.0007759
0.0007874
0.0006754
0.002041
0.004538
0.00723
0.005623
0.008394
0.004463
0.00293
0.001208
0.0008316
0.0009866
0.001442
0.001815
0.003485
0.008105
0.01149
0.014
0.01147
0.007875
0.007378
0.01099
0.009767
0.007376
0.00551
0.003532
0.003818
0.006988
0.01573
0.02672
0.03287
0.0327
0.02701
0.01934
0.0135
0.008471
0.006145
0.006194
0.009385
0.01472
0.02684
0.0414
0.04454
0.06017
0.0816
0.1329
0.2311
0.4936
0.656
0.7908
0.8645
0.9182
0.9517
0.9786
0.9928
0.998
0.999
0.9992
0.9988
0.9983
0.9975
0.997
0.9958
0.9959
0.9968
0.9964
0.9941
0.985
0.956
0.916
0.9294
0.9271
0.9137
0.878
0.8038
0.693
0.6316
0.5811
0.5168
0.4505
0.4132
0.3932
0.3774
0.34
0.2926
0.2847
0.3684
0.5261
0.6489
0.7041
0.6972
0.6891
0.681
0.7087
0.7376
0.7943
0.84
0.8994
0.9244
0.9369
0.934
0.9461
0.9582
0.9756
0.9846
0.9903
0.9941
0.9965
0.9984
0.9993
0.9995
0.9997
0.9998
0.9999
0.9999
1
0.9999
1
1
1
1
1
1
1
1
1
1
1
1
1
1
1
1
1
1
1
1
1
1
1
1
1
1
1
1
1
1
1
1
1
1
0.9999
0.9998
0.9996
0.9991
0.005517
0.005522
0.006814
0.002294
0.001105
0.0004463
0.0002242
0.0006738
0.003037
0.008681
0.0143
0.02245
0.01126
0.007735
0.004013
0.002936
0.002074
0.002546
0.002342
0.004167
0.006866
0.008161
0.009149
0.006953
0.007278
0.009112
0.01579
0.01502
0.0121
0.007428
0.0042
0.00328
0.004578
0.01126
0.02523
0.04259
0.04914
0.03668
0.02538
0.01905
0.01401
0.01219
0.01332
0.01766
0.02553
0.04202
0.0665
0.08811
0.1353
0.2095
0.3571
0.5592
0.7338
0.8327
0.9151
0.9558
0.9784
0.9888
0.9949
0.9976
0.999
0.9993
0.9992
0.9983
0.9965
0.9939
0.9924
0.9907
0.9905
0.9903
0.987
0.9768
0.9529
0.8895
0.8185
0.812
0.7904
0.7411
0.657
0.5082
0.3477
0.2657
0.2323
0.2026
0.1602
0.1222
0.09981
0.09117
0.07856
0.06762
0.05938
0.05684
0.07205
0.1085
0.1551
0.1893
0.2503
0.2895
0.3462
0.4013
0.4953
0.5605
0.6689
0.732
0.7666
0.7883
0.837
0.8752
0.9174
0.9379
0.9511
0.9677
0.9823
0.9935
0.9976
0.9989
0.9993
0.9996
0.9998
0.9999
0.9999
0.9999
0.9999
1
1
1
1
1
0.9999
0.9999
1
1
1
1
1
1
1
1
1
1
1
1
1
1
1
1
1
1
1
1
1
1
1
0.9999
0.9998
0.9997
0.9991
0.9979
0.9958
0.9899
0.004384
0.00483
0.006413
0.002341
0.001775
0.0004543
0.0002056
0.0004314
0.002307
0.005797
0.01449
0.02091
0.01275
0.009671
0.006631
0.005864
0.004186
0.004256
0.004423
0.005022
0.006186
0.006132
0.005791
0.004437
0.004957
0.005947
0.01092
0.01307
0.01386
0.01032
0.005354
0.002807
0.002655
0.004973
0.01305
0.02873
0.04006
0.03035
0.02236
0.01983
0.0209
0.02488
0.03353
0.04291
0.0587
0.09153
0.1458
0.226
0.3642
0.5254
0.6546
0.7621
0.8461
0.9019
0.9521
0.9779
0.9907
0.9959
0.9982
0.999
0.9993
0.9995
0.9992
0.9984
0.9965
0.9937
0.99
0.9863
0.9818
0.9747
0.9613
0.9353
0.8894
0.786
0.6827
0.6217
0.5365
0.4001
0.2509
0.1476
0.1046
0.08512
0.06831
0.04967
0.0304
0.01894
0.01409
0.01594
0.01639
0.01769
0.01452
0.01225
0.0148
0.0238
0.03672
0.05044
0.0632
0.06948
0.08485
0.105
0.1297
0.1635
0.2641
0.3924
0.4814
0.5456
0.6227
0.7023
0.7714
0.8067
0.8207
0.8589
0.9125
0.9676
0.989
0.9968
0.9987
0.9994
0.9996
0.9998
0.9999
0.9999
0.9999
0.9999
1
1
1
1
1
1
1
1
1
1
1
1
1
1
1
1
1
1
1
1
1
1
1
1
1
1
0.9999
0.9998
0.9995
0.9989
0.9981
0.9961
0.9898
0.97
0.9344
0.8697
0.003658
0.005036
0.008206
0.002829
0.002376
0.0004062
0.0001912
0.000277
0.002322
0.004555
0.01132
0.01172
0.008765
0.007618
0.005533
0.005038
0.004712
0.005672
0.007068
0.005765
0.004106
0.002805
0.002855
0.003357
0.004778
0.004734
0.007387
0.00928
0.009846
0.007619
0.004459
0.00211
0.001813
0.003372
0.008708
0.02068
0.03258
0.02862
0.02326
0.02373
0.03108
0.04359
0.06406
0.0808
0.1073
0.1543
0.2477
0.3878