/*--------------------------------*- C++ -*----------------------------------*\
| =========                 |                                                 |
| \\      /  F ield         | OpenFOAM: The Open Source CFD Toolbox           |
|  \\    /   O peration     | Version:  5.x                                   |
|   \\  /    A nd           | Web:      www.OpenFOAM.org                      |
|    \\/     M anipulation  |                                                 |
\*---------------------------------------------------------------------------*/
FoamFile
{
    version     2.0;
    format      ascii;
    class       volScalarField;
    location    "65";
    object      gamma;
}
// * * * * * * * * * * * * * * * * * * * * * * * * * * * * * * * * * * * * * //

dimensions      [0 0 0 0 0 0 0];

internalField   nonuniform List<scalar> 
86400
(
0.001815
0.001783
0.001874
0.002084
0.002571
0.003316
0.004228
0.00557
0.008181
0.01225
0.01908
0.02893
0.04404
0.05965
0.07694
0.08632
0.08925
0.07953
0.07111
0.06483
0.0596
0.05343
0.04881
0.04406
0.04271
0.04767
0.04997
0.05149
0.05001
0.04915
0.048
0.04923
0.05058
0.0519
0.05343
0.05512
0.05092
0.04407
0.03522
0.03024
0.0274
0.02759
0.0268
0.02521
0.02531
0.02673
0.03
0.03219
0.03349
0.03227
0.0319
0.03196
0.03203
0.03176
0.03084
0.031
0.03151
0.03207
0.03232
0.03226
0.03036
0.02971
0.02792
0.02781
0.02995
0.03357
0.03711
0.03965
0.03787
0.03609
0.03656
0.03755
0.03862
0.03614
0.03471
0.03325
0.03187
0.03347
0.03792
0.043
0.05029
0.05486
0.05443
0.05344
0.05375
0.05301
0.05489
0.05558
0.05663
0.05707
0.05549
0.05916
0.06567
0.07799
0.0873
0.09356
0.09036
0.08922
0.08899
0.08928
0.08979
0.09119
0.08707
0.08001
0.06837
0.06675
0.07239
0.09098
0.1073
0.1197
0.1179
0.115
0.1141
0.1139
0.1139
0.1139
0.1139
0.1138
0.1142
0.1148
0.1155
0.1161
0.1163
0.1161
0.1161
0.1163
0.1159
0.1152
0.1143
0.1132
0.1121
0.1147
0.1181
0.1223
0.1259
0.129
0.1305
0.1309
0.1139
0.09171
0.07681
0.07672
0.08341
0.09367
0.0919
0.08303
0.07657
0.07751
0.07885
0.07725
0.072
0.0684
0.06903
0.05851
0.04889
0.04589
0.05594
0.1066
0.853
0.9877
0.001872
0.001748
0.001802
0.001971
0.002589
0.003731
0.005398
0.008134
0.01311
0.02053
0.03321
0.04844
0.0662
0.08111
0.099
0.1127
0.126
0.1239
0.1245
0.1244
0.1257
0.123
0.1168
0.1027
0.09535
0.09319
0.09266
0.09151
0.08992
0.08828
0.08487
0.08362
0.08251
0.08175
0.08197
0.08347
0.07867
0.0705
0.06078
0.0539
0.04894
0.04741
0.04578
0.04322
0.04241
0.04358
0.04555
0.04732
0.04863
0.04799
0.0485
0.0496
0.05069
0.05119
0.05023
0.04964
0.04892
0.04859
0.04705
0.04532
0.04164
0.04021
0.0376
0.03779
0.04117
0.04888
0.05488
0.05963
0.05835
0.05702
0.05766
0.0577
0.05682
0.0527
0.05096
0.05113
0.05488
0.06101
0.06839
0.0725
0.07996
0.08536
0.08902
0.09263
0.09674
0.09822
0.1023
0.1035
0.1053
0.1065
0.105
0.11
0.1176
0.1272
0.1354
0.1406
0.1367
0.1353
0.135
0.136
0.1378
0.1409
0.1388
0.1314
0.1185
0.1148
0.1205
0.137
0.1562
0.1704
0.1699
0.1666
0.1656
0.1655
0.1656
0.1657
0.166
0.1662
0.1673
0.1688
0.1705
0.1719
0.1728
0.1728
0.173
0.1735
0.1729
0.1716
0.17
0.1684
0.167
0.1707
0.1756
0.1827
0.1879
0.1899
0.1882
0.1845
0.1651
0.1407
0.1287
0.1284
0.1324
0.1416
0.1425
0.134
0.1279
0.1303
0.1339
0.1301
0.1208
0.1138
0.1139
0.1061
0.1045
0.1196
0.175
0.3828
0.8052
0.9488
0.002106
0.001933
0.001973
0.002224
0.003212
0.005193
0.008423
0.01436
0.02439
0.03891
0.06021
0.08279
0.1114
0.1389
0.1696
0.1929
0.2171
0.2229
0.2519
0.278
0.301
0.3007
0.2859
0.2511
0.234
0.2253
0.2142
0.2006
0.1906
0.1831
0.1762
0.1717
0.1658
0.1606
0.1569
0.1557
0.1466
0.132
0.1152
0.1027
0.09303
0.08804
0.08258
0.07869
0.0774
0.07968
0.08246
0.08496
0.08712
0.08567
0.08507
0.08548
0.08674
0.08845
0.08964
0.08912
0.08702
0.08326
0.07817
0.07233
0.06522
0.06227
0.05935
0.06266
0.0687
0.07755
0.08615
0.09436
0.09489
0.09381
0.09353
0.09043
0.08755
0.08434
0.08623
0.09495
0.1066
0.1183
0.1296
0.1348
0.1428
0.1489
0.1553
0.1645
0.1767
0.183
0.1916
0.1953
0.1965
0.1948
0.1879
0.1863
0.1915
0.2032
0.2146
0.2226
0.2219
0.2206
0.2211
0.2236
0.2274
0.2329
0.2348
0.2287
0.2142
0.2076
0.2136
0.2306
0.2534
0.2691
0.2699
0.2658
0.2645
0.2644
0.2648
0.2654
0.2645
0.2623
0.2612
0.2613
0.2634
0.2665
0.2688
0.2695
0.2706
0.2721
0.2716
0.27
0.2672
0.2652
0.2637
0.269
0.2753
0.2825
0.2885
0.2893
0.2851
0.2782
0.2591
0.236
0.2248
0.2247
0.2301
0.2395
0.2406
0.2302
0.222
0.2235
0.2297
0.2259
0.2191
0.2129
0.2284
0.241
0.2875
0.4095
0.5726
0.7391
0.8732
0.9367
0.002581
0.002427
0.002599
0.00323
0.005313
0.00969
0.0173
0.03165
0.05438
0.08569
0.1243
0.1497
0.1889
0.2176
0.261
0.3052
0.3748
0.4027
0.4786
0.5334
0.5729
0.5857
0.5755
0.5416
0.5145
0.4832
0.4484
0.4153
0.3942
0.3802
0.374
0.3689
0.3566
0.3494
0.3425
0.3366
0.3172
0.2897
0.2578
0.2343
0.2153
0.2052
0.199
0.1976
0.1932
0.1923
0.1882
0.1828
0.1806
0.1782
0.1786
0.1789
0.1812
0.1861
0.1934
0.1967
0.1978
0.19
0.1753
0.1566
0.1367
0.1269
0.1208
0.124
0.1344
0.1497
0.1636
0.1796
0.1863
0.1965
0.2029
0.1963
0.192
0.19
0.1916
0.2139
0.2422
0.2627
0.2743
0.2796
0.2823
0.2901
0.3109
0.3384
0.368
0.3894
0.4068
0.4151
0.4196
0.4215
0.4172
0.4096
0.4101
0.4186
0.427
0.435
0.4408
0.4407
0.4422
0.4468
0.4534
0.4618
0.4706
0.4717
0.4627
0.4489
0.4441
0.4469
0.4561
0.4645
0.4677
0.4654
0.465
0.4658
0.467
0.4688
0.4673
0.4639
0.4613
0.4604
0.4619
0.4666
0.4703
0.4724
0.4748
0.4775
0.4777
0.4765
0.4746
0.4731
0.4725
0.4781
0.4843
0.4872
0.4872
0.4796
0.4676
0.4532
0.4452
0.4404
0.4415
0.4437
0.4477
0.4513
0.455
0.4537
0.4525
0.457
0.4719
0.4786
0.4909
0.5067
0.5447
0.5913
0.6758
0.7712
0.8527
0.9149
0.956
0.9754
0.003697
0.003878
0.004588
0.006493
0.01179
0.02276
0.0402
0.07269
0.1158
0.1615
0.2074
0.2201
0.2686
0.321
0.4008
0.4385
0.5007
0.5334
0.6155
0.6818
0.7146
0.7247
0.7067
0.6791
0.6637
0.6529
0.6406
0.6276
0.6171
0.6006
0.5857
0.5726
0.5646
0.5679
0.5793
0.5812
0.5595
0.5323
0.5016
0.4819
0.4632
0.4502
0.4441
0.466
0.497
0.535
0.5474
0.539
0.5217
0.5024
0.495
0.4819
0.4738
0.4673
0.4763
0.4847
0.5056
0.5102
0.4886
0.4414
0.3856
0.3436
0.3261
0.3208
0.3216
0.3205
0.3287
0.3385
0.342
0.3518
0.354
0.3372
0.3403
0.3567
0.372
0.3959
0.4233
0.4355
0.4444
0.4638
0.4705
0.4774
0.4929
0.5131
0.5335
0.5518
0.5649
0.5713
0.5765
0.5798
0.5764
0.5738
0.5785
0.589
0.6021
0.6124
0.6192
0.6203
0.622
0.6233
0.624
0.6248
0.6264
0.6245
0.6182
0.6106
0.6055
0.6043
0.6075
0.6113
0.6122
0.6115
0.6119
0.6131
0.6125
0.6111
0.6064
0.6006
0.5952
0.5942
0.5952
0.5992
0.6026
0.6051
0.6077
0.6104
0.6115
0.6119
0.612
0.6124
0.6136
0.6163
0.6183
0.6154
0.6103
0.6008
0.5906
0.5825
0.581
0.5824
0.5877
0.5939
0.5995
0.6056
0.6129
0.616
0.6193
0.6256
0.6425
0.6599
0.6867
0.7159
0.7516
0.7958
0.8534
0.9036
0.9411
0.9648
0.9791
0.9866
0.005382
0.006514
0.008764
0.01442
0.02823
0.05154
0.08269
0.1307
0.1809
0.2181
0.2706
0.2939
0.3608
0.4245
0.4966
0.5144
0.5553
0.5871
0.6557
0.7259
0.7655
0.7823
0.7711
0.7512
0.7223
0.6948
0.6656
0.6473
0.6401
0.6335
0.6289
0.6281
0.6391
0.663
0.6949
0.7056
0.6968
0.6846
0.6739
0.6666
0.6655
0.6816
0.7185
0.7774
0.8325
0.8666
0.8718
0.8566
0.8254
0.7901
0.7727
0.7503
0.7237
0.689
0.694
0.722
0.7714
0.7953
0.7919
0.7559
0.7121
0.6648
0.6159
0.5771
0.544
0.5145
0.5115
0.5117
0.5112
0.5143
0.5156
0.5067
0.5161
0.5321
0.5357
0.5455
0.5559
0.5653
0.5784
0.601
0.6136
0.6238
0.6341
0.6467
0.6578
0.668
0.6757
0.6803
0.6844
0.6889
0.6923
0.693
0.6981
0.7057
0.7135
0.7209
0.7257
0.7265
0.7279
0.7269
0.7242
0.7202
0.7159
0.7108
0.7052
0.6995
0.6941
0.6912
0.6904
0.6902
0.6885
0.6875
0.6873
0.6882
0.6874
0.6854
0.6807
0.6758
0.6718
0.6713
0.672
0.6749
0.6779
0.6807
0.6834
0.6861
0.6885
0.6907
0.6929
0.6954
0.6979
0.7008
0.7035
0.7022
0.6992
0.6926
0.6868
0.6824
0.6831
0.6856
0.691
0.6977
0.7046
0.7119
0.7205
0.727
0.7348
0.7456
0.7622
0.7824
0.8079
0.8325
0.8598
0.8905
0.9236
0.9502
0.9688
0.9796
0.9861
0.9901
0.008058
0.01077
0.01583
0.02727
0.05172
0.08592
0.1281
0.1803
0.2289
0.2623
0.338
0.3935
0.461
0.5278
0.5649
0.5682
0.5824
0.6086
0.6541
0.7214
0.7659
0.7811
0.7761
0.7707
0.7529
0.7277
0.6914
0.6584
0.6488
0.6538
0.6692
0.6831
0.7161
0.759
0.8076
0.8329
0.8426
0.8452
0.8486
0.8491
0.8568
0.8741
0.9036
0.9377
0.9631
0.975
0.9761
0.9691
0.9529
0.932
0.921
0.9138
0.9084
0.8988
0.9043
0.9146
0.933
0.9386
0.9334
0.9107
0.8772
0.8338
0.7802
0.731
0.6865
0.6498
0.6346
0.6242
0.6198
0.6114
0.6135
0.6102
0.6291
0.6464
0.6504
0.6514
0.653
0.6583
0.6684
0.6861
0.6979
0.707
0.7162
0.7267
0.7377
0.7466
0.753
0.7562
0.7601
0.7641
0.7662
0.7667
0.7692
0.7725
0.7765
0.7796
0.7806
0.7796
0.7791
0.7758
0.7712
0.7636
0.7564
0.751
0.7485
0.7455
0.743
0.7412
0.7396
0.7387
0.7372
0.7361
0.7357
0.7363
0.7354
0.7334
0.7289
0.7255
0.7234
0.7245
0.7263
0.7292
0.7322
0.7351
0.7379
0.7406
0.7433
0.7459
0.7486
0.7513
0.7541
0.7574
0.7608
0.7613
0.7609
0.76
0.7589
0.7586
0.7614
0.765
0.77
0.777
0.7845
0.7923
0.8011
0.8094
0.8189
0.8299
0.8433
0.8583
0.8749
0.8933
0.9143
0.9358
0.9557
0.9704
0.9794
0.9848
0.9882
0.9904
0.01382
0.01886
0.02774
0.04601
0.08017
0.1204
0.1693
0.2194
0.2713
0.3306
0.4523
0.5284
0.5732
0.6137
0.6301
0.6317
0.6325
0.6312
0.6237
0.6515
0.6804
0.7013
0.7199
0.7448
0.7516
0.7382
0.7034
0.667
0.6554
0.6799
0.7193
0.7607
0.8109
0.8614
0.9049
0.9265
0.9363
0.9395
0.9438
0.9449
0.9522
0.962
0.9752
0.986
0.9927
0.9953
0.9953
0.9932
0.9879
0.9813
0.9792
0.9802
0.982
0.9817
0.9838
0.985
0.987
0.9856
0.9803
0.9669
0.9429
0.9059
0.8512
0.798
0.7534
0.7205
0.7036
0.6916
0.686
0.6834
0.6878
0.6908
0.7052
0.7172
0.721
0.7217
0.7245
0.7337
0.744
0.758
0.7668
0.773
0.7788
0.7856
0.7928
0.7991
0.8033
0.8043
0.8069
0.8105
0.8138
0.8167
0.8187
0.8195
0.8206
0.8206
0.8182
0.8149
0.8115
0.8059
0.8005
0.7933
0.7863
0.7807
0.7784
0.7761
0.7747
0.7739
0.7733
0.7727
0.7717
0.7705
0.7702
0.7709
0.7707
0.7697
0.7684
0.768
0.7687
0.7716
0.7744
0.7773
0.7802
0.7831
0.7859
0.7888
0.7917
0.7945
0.7971
0.7997
0.8024
0.8057
0.8095
0.8119
0.8136
0.8152
0.8162
0.8178
0.821
0.8248
0.8298
0.8364
0.8432
0.8503
0.8581
0.8665
0.8759
0.8858
0.8958
0.9055
0.917
0.9311
0.9467
0.9611
0.9726
0.9798
0.9843
0.9872
0.9891
0.9899
0.02473
0.03295
0.04433
0.06761
0.1071
0.1517
0.2042
0.2534
0.3124
0.4034
0.5274
0.6215
0.6633
0.6923
0.7018
0.688
0.67
0.6384
0.603
0.61
0.6258
0.6156
0.631
0.6706
0.7014
0.7148
0.7005
0.6673
0.6604
0.7028
0.7596
0.817
0.8752
0.9225
0.9534
0.9666
0.9721
0.9725
0.9741
0.9759
0.9816
0.9873
0.9925
0.9959
0.9978
0.9985
0.9984
0.9975
0.9956
0.9938
0.9942
0.9957
0.997
0.9975
0.9978
0.9976
0.9971
0.9954
0.9912
0.9805
0.9589
0.9226
0.8693
0.819
0.7817
0.7558
0.7425
0.7354
0.734
0.7333
0.7349
0.7363
0.7454
0.7564
0.7675
0.7779
0.7872
0.7976
0.8059
0.8136
0.8195
0.8235
0.8265
0.8302
0.8341
0.8376
0.8407
0.8419
0.843
0.8439
0.8446
0.8451
0.8461
0.8473
0.8492
0.8484
0.8438
0.8367
0.8296
0.8221
0.8171
0.8122
0.8074
0.8041
0.8033
0.8028
0.8029
0.8031
0.8033
0.803
0.8025
0.8021
0.8023
0.8031
0.8038
0.8041
0.8044
0.8053
0.807
0.8098
0.8124
0.8149
0.8173
0.8197
0.8224
0.8252
0.8287
0.8322
0.8353
0.8383
0.8413
0.8445
0.8483
0.8522
0.8558
0.8596
0.8627
0.8658
0.869
0.8727
0.8772
0.8826
0.8882
0.8939
0.8998
0.9062
0.9129
0.9197
0.9261
0.9318
0.9413
0.9532
0.9653
0.9753
0.9816
0.985
0.9873
0.9892
0.9899
0.9895
0.04096
0.05008
0.06406
0.0948
0.1402
0.1926
0.2402
0.2785
0.3274
0.443
0.5665
0.6601
0.6985
0.7196
0.7181
0.6982
0.7038
0.6986
0.6661
0.6446
0.6077
0.51
0.465
0.4975
0.5245
0.5695
0.5779
0.5599
0.5702
0.652
0.7387
0.8188
0.8896
0.9396
0.9673
0.9781
0.9812
0.9804
0.9805
0.9826
0.9881
0.9928
0.9961
0.9978
0.9987
0.9989
0.9987
0.998
0.9971
0.9969
0.9978
0.9988
0.9993
0.9995
0.9995
0.9993
0.9987
0.9967
0.9911
0.9772
0.95
0.9052
0.8509
0.8051
0.7785
0.7639
0.7559
0.7542
0.7588
0.7666
0.775
0.7827
0.7905
0.7993
0.8082
0.8164
0.8229
0.8294
0.8345
0.8395
0.844
0.8472
0.8489
0.8505
0.8527
0.8554
0.8582
0.8601
0.8615
0.8626
0.8639
0.8655
0.8676
0.8682
0.8684
0.865
0.8579
0.8491
0.8406
0.8337
0.8309
0.8291
0.8271
0.8258
0.8252
0.8249
0.825
0.8252
0.8256
0.8259
0.8262
0.8267
0.8275
0.8288
0.8306
0.8326
0.8348
0.8371
0.8395
0.8417
0.844
0.8461
0.8484
0.8509
0.8539
0.8571
0.8609
0.8645
0.8675
0.8704
0.8732
0.8764
0.8797
0.8832
0.8864
0.8897
0.8929
0.8962
0.8997
0.9034
0.9074
0.9117
0.9161
0.9205
0.9249
0.9295
0.9342
0.9388
0.943
0.9464
0.9553
0.9661
0.9761
0.9825
0.9863
0.9878
0.9887
0.9896
0.989
0.9869
0.05911
0.0693
0.08579
0.124
0.1759
0.2471
0.2841
0.3028
0.3379
0.4547
0.5592
0.6544
0.6915
0.6906
0.6369
0.6216
0.668
0.7062
0.7225
0.7051
0.6124
0.3978
0.2424
0.2204
0.22
0.2584
0.3267
0.3673
0.4183
0.5247
0.6349
0.7466
0.8486
0.9219
0.9595
0.973
0.9758
0.973
0.9713
0.9758
0.985
0.9918
0.9957
0.9975
0.9983
0.9983
0.9979
0.9972
0.9968
0.9975
0.9988
0.9995
0.9997
0.9998
0.9997
0.9993
0.998
0.9938
0.9817
0.9531
0.9098
0.8559
0.8092
0.7797
0.7699
0.768
0.7679
0.7693
0.7749
0.7834
0.7925
0.802
0.8102
0.8176
0.8247
0.8309
0.8358
0.8401
0.8439
0.8482
0.8527
0.8566
0.8596
0.8623
0.8652
0.8685
0.8719
0.8745
0.8765
0.8783
0.8803
0.8828
0.8843
0.8827
0.8799
0.8734
0.8646
0.8552
0.8483
0.8429
0.8415
0.8416
0.8415
0.8418
0.8419
0.8422
0.8425
0.8429
0.8435
0.8443
0.8455
0.8469
0.8486
0.8504
0.8521
0.8539
0.8559
0.8579
0.8601
0.8623
0.8647
0.8672
0.8698
0.8727
0.8759
0.8792
0.8829
0.8865
0.8895
0.8925
0.8954
0.8983
0.9013
0.9044
0.9072
0.9102
0.9132
0.9163
0.9195
0.9228
0.9261
0.9295
0.933
0.9364
0.9399
0.9434
0.9468
0.9499
0.9526
0.9547
0.9622
0.971
0.9794
0.9847
0.9879
0.9887
0.9889
0.9886
0.9862
0.9815
0.07285
0.08494
0.1099
0.1581
0.2212
0.3184
0.3607
0.3902
0.4206
0.5132
0.567
0.6476
0.6599
0.6009
0.5267
0.5561
0.6422
0.724
0.7274
0.6442
0.4443
0.219
0.1535
0.1314
0.1187
0.1244
0.1535
0.1766
0.2133
0.2923
0.4188
0.5843
0.7373
0.8623
0.9242
0.947
0.9493
0.9422
0.939
0.9518
0.9712
0.9846
0.992
0.9952
0.9965
0.9965
0.9958
0.9951
0.9956
0.9972
0.9987
0.9994
0.9996
0.9995
0.9992
0.9977
0.993
0.9791
0.9455
0.8874
0.8273
0.7781
0.7556
0.7502
0.7553
0.761
0.7653
0.7688
0.7752
0.7854
0.7962
0.8065
0.8153
0.8217
0.8269
0.8311
0.8348
0.8388
0.844
0.8503
0.8568
0.8623
0.8667
0.8706
0.8744
0.8781
0.8817
0.8845
0.8869
0.8892
0.8918
0.8935
0.8928
0.8881
0.8814
0.8718
0.8634
0.8571
0.8535
0.8506
0.8502
0.8507
0.8509
0.8512
0.8515
0.8519
0.8524
0.8532
0.854
0.8552
0.8567
0.8584
0.8602
0.8621
0.8637
0.8654
0.8674
0.8697
0.8722
0.8748
0.8778
0.8809
0.884
0.8873
0.8907
0.8941
0.8977
0.9011
0.9041
0.9071
0.91
0.9127
0.9154
0.9181
0.9208
0.9236
0.9266
0.9296
0.9326
0.9354
0.9382
0.9409
0.9436
0.9463
0.949
0.9515
0.954
0.9563
0.9582
0.9596
0.9653
0.9716
0.9786
0.9832
0.9863
0.9869
0.9869
0.9852
0.9801
0.9719
0.07516
0.09345
0.1303
0.1945
0.2678
0.3699
0.422
0.4671
0.5135
0.5775
0.6012
0.62
0.567
0.4925
0.483
0.5686
0.6649
0.7181
0.6168
0.3632
0.1573
0.09303
0.07872
0.08373
0.08473
0.08888
0.111
0.1355
0.1677
0.2162
0.2649
0.3948
0.5686
0.7395
0.8364
0.8783
0.8855
0.8756
0.8676
0.8946
0.9369
0.9651
0.9812
0.9887
0.9918
0.9924
0.9916
0.991
0.9925
0.9951
0.9974
0.9985
0.9986
0.998
0.9958
0.9887
0.9697
0.9309
0.8625
0.7843
0.7359
0.7161
0.7223
0.7327
0.7417
0.7486
0.7528
0.7567
0.7649
0.777
0.7899
0.801
0.8098
0.8151
0.8189
0.8222
0.8261
0.8317
0.8396
0.8487
0.8573
0.8645
0.8704
0.8753
0.8796
0.8834
0.887
0.8901
0.8928
0.8944
0.8954
0.8944
0.8906
0.8828
0.8732
0.8634
0.8564
0.8529
0.8519
0.8513
0.8519
0.8524
0.8528
0.8533
0.8538
0.8545
0.8553
0.8563
0.8576
0.8592
0.8611
0.8631
0.8649
0.8668
0.8687
0.8709
0.8733
0.8764
0.8795
0.8828
0.8863
0.89
0.8936
0.8973
0.9008
0.9041
0.9075
0.9109
0.9141
0.9172
0.92
0.9226
0.9251
0.9277
0.9304
0.9332
0.9359
0.9385
0.941
0.9434
0.9457
0.948
0.9502
0.9523
0.9544
0.9565
0.9584
0.9601
0.9615
0.9624
0.9656
0.9692
0.974
0.9789
0.9827
0.9836
0.983
0.9787
0.9709
0.9599
0.07225
0.09747
0.148
0.2317
0.3178
0.3999
0.4466
0.5133
0.5864
0.6164
0.5844
0.5463
0.488
0.4815
0.5419
0.629
0.6404
0.469
0.1421
0.03895
0.01884
0.01933
0.02824
0.05119
0.07409
0.08886
0.1107
0.1434
0.1557
0.1797
0.2014
0.2513
0.3313
0.5364
0.6588
0.7246
0.7436
0.7406
0.7339
0.7885
0.8614
0.9139
0.9479
0.9665
0.975
0.978
0.9783
0.979
0.9828
0.9875
0.9919
0.9936
0.9927
0.9884
0.9779
0.9513
0.8969
0.8273
0.7478
0.6911
0.676
0.6827
0.6961
0.7108
0.7225
0.7305
0.7356
0.7394
0.7484
0.761
0.7748
0.7865
0.7958
0.8008
0.8043
0.8073
0.8118
0.8195
0.8302
0.8418
0.8523
0.8613
0.8685
0.8743
0.8791
0.8825
0.8849
0.8861
0.8869
0.886
0.8847
0.8811
0.8751
0.865
0.8559
0.8478
0.8442
0.844
0.8452
0.8461
0.8468
0.8474
0.8481
0.8489
0.8499
0.851
0.8523
0.8537
0.8554
0.8574
0.8597
0.8619
0.8641
0.8665
0.8692
0.8724
0.8759
0.8797
0.8836
0.8876
0.8918
0.896
0.9
0.904
0.9077
0.9111
0.9145
0.9177
0.9208
0.9237
0.9264
0.929
0.9316
0.9342
0.9369
0.9395
0.9419
0.9442
0.9463
0.9484
0.9504
0.9524
0.9543
0.9561
0.9578
0.9594
0.9609
0.9622
0.9633
0.9638
0.9648
0.967
0.9708
0.9759
0.9797
0.9813
0.9798
0.9736
0.9626
0.9495
0.06784
0.1005
0.1706
0.2895
0.398
0.4541
0.485
0.5417
0.607
0.6125
0.5695
0.5095
0.5056
0.5535
0.5897
0.5561
0.2135
0.03981
0.007027
0.002068
0.001812
0.003954
0.01048
0.02734
0.05975
0.0865
0.1113
0.1632
0.1783
0.187
0.188
0.2093
0.223
0.3174
0.412
0.4716
0.499
0.5232
0.5333
0.621
0.7196
0.804
0.8586
0.8944
0.9132
0.9254
0.9311
0.9371
0.9485
0.959
0.9682
0.9714
0.9652
0.947
0.9143
0.8559
0.7761
0.7132
0.6603
0.636
0.6373
0.6505
0.6678
0.684
0.697
0.706
0.7132
0.7176
0.728
0.7407
0.7548
0.766
0.775
0.7795
0.7827
0.7859
0.7912
0.8002
0.8124
0.8257
0.8384
0.8495
0.8585
0.8654
0.8702
0.8723
0.8724
0.8705
0.8683
0.8645
0.8607
0.8542
0.8474
0.8393
0.8339
0.8299
0.8299
0.8314
0.8327
0.8337
0.8347
0.8357
0.837
0.8385
0.8402
0.8419
0.8437
0.8455
0.8476
0.8505
0.8537
0.8568
0.8599
0.8631
0.8668
0.8711
0.8759
0.8807
0.8855
0.8902
0.8949
0.8996
0.9038
0.9078
0.9115
0.915
0.9184
0.9217
0.9249
0.9279
0.9306
0.9332
0.9358
0.9385
0.9411
0.9435
0.9457
0.9477
0.9497
0.9516
0.9534
0.9551
0.9568
0.9583
0.9597
0.961
0.9622
0.9631
0.9637
0.9638
0.9644
0.9668
0.9706
0.9758
0.9794
0.9815
0.9799
0.9745
0.9644
0.9537
0.06447
0.1069
0.2057
0.384
0.4963
0.524
0.5258
0.5596
0.5883
0.6017
0.5764
0.5201
0.5132
0.5598
0.4377
0.1238
0.01696
0.001888
0.0003777
0.0001827
0.0003451
0.001474
0.006774
0.02349
0.06516
0.09188
0.125
0.1809
0.2015
0.2036
0.1973
0.2117
0.1898
0.2177
0.2256
0.2355
0.2471
0.28
0.2932
0.3798
0.4874
0.5676
0.6348
0.698
0.7316
0.7618
0.7888
0.8182
0.8528
0.8776
0.8937
0.8962
0.8817
0.8506
0.8078
0.7457
0.677
0.6276
0.5954
0.5925
0.6035
0.619
0.636
0.651
0.6645
0.6749
0.6841
0.6909
0.7027
0.715
0.7293
0.7402
0.7485
0.7516
0.7543
0.7582
0.7643
0.7725
0.7844
0.798
0.8123
0.8257
0.8372
0.8453
0.8495
0.8499
0.8469
0.8413
0.8357
0.8286
0.8227
0.8166
0.812
0.8079
0.807
0.807
0.8089
0.8105
0.812
0.8134
0.815
0.8167
0.8187
0.821
0.8235
0.8261
0.8287
0.8315
0.8347
0.839
0.8438
0.8483
0.8525
0.857
0.862
0.8677
0.8737
0.8795
0.8851
0.8904
0.8956
0.9004
0.9048
0.909
0.913
0.9168
0.9205
0.9241
0.9274
0.9305
0.9332
0.936
0.9386
0.9413
0.9437
0.9459
0.948
0.9499
0.9518
0.9535
0.9552
0.9567
0.9582
0.9595
0.9607
0.9616
0.9624
0.9628
0.9628
0.9634
0.966
0.9706
0.9751
0.9799
0.9822
0.9834
0.9829
0.9794
0.9719
0.9616
0.05858
0.1082
0.2282
0.4559
0.572
0.6005
0.5786
0.5602
0.5599
0.6136
0.6327
0.6166
0.5762
0.3791
0.07308
0.008139
0.0008269
0.0001217
5.699e-05
7.175e-05
0.0002709
0.001544
0.007681
0.02523
0.0691
0.08553
0.1166
0.1695
0.1946
0.1936
0.202
0.2031
0.1694
0.1672
0.1491
0.1398
0.1458
0.1639
0.1736
0.1942
0.2265
0.2584
0.3092
0.3838
0.4384
0.4963
0.5553
0.6141
0.6767
0.7305
0.7703
0.7866
0.7772
0.7456
0.6966
0.6394
0.5863
0.5631
0.5526
0.56
0.5735
0.5886
0.6026
0.6145
0.6262
0.6367
0.6469
0.6569
0.6705
0.6841
0.6981
0.7083
0.7156
0.7184
0.7218
0.7262
0.7321
0.7388
0.7472
0.758
0.7699
0.7827
0.7953
0.8056
0.8111
0.8118
0.8067
0.7976
0.7882
0.7803
0.7741
0.7708
0.7704
0.771
0.7735
0.7755
0.7774
0.7793
0.7813
0.7835
0.7859
0.7886
0.7915
0.7947
0.7982
0.8023
0.8067
0.8117
0.8169
0.8231
0.8297
0.836
0.8421
0.8482
0.8547
0.8617
0.8692
0.876
0.8825
0.8885
0.8941
0.8994
0.9043
0.9088
0.9132
0.9174
0.9214
0.9252
0.9286
0.9318
0.9347
0.9375
0.9402
0.9428
0.9451
0.9472
0.9492
0.9511
0.9528
0.9545
0.956
0.9574
0.9587
0.9598
0.9607
0.9612
0.9614
0.9624
0.9636
0.9663
0.9706
0.9759
0.9803
0.9837
0.9855
0.9867
0.9871
0.9843
0.9781
0.9657
0.04995
0.102
0.2343
0.4928
0.6067
0.6614
0.6453
0.5915
0.575
0.6399
0.6876
0.6491
0.485
0.1038
0.007133
0.0005583
8.39e-05
3.045e-05
4.113e-05
0.0001074
0.0005874
0.003346
0.01565
0.04332
0.09814
0.09999
0.1127
0.1411
0.162
0.169
0.1865
0.1976
0.177
0.15
0.1234
0.1076
0.1079
0.121
0.1325
0.1428
0.1544
0.1622
0.1835
0.2125
0.2487
0.2904
0.3534
0.437
0.5326
0.6024
0.6427
0.6608
0.648
0.6206
0.5831
0.5474
0.5197
0.5191
0.5214
0.5299
0.5429
0.5564
0.5671
0.5755
0.5841
0.5944
0.6062
0.6202
0.635
0.6485
0.6611
0.6705
0.6769
0.6806
0.6849
0.6896
0.6949
0.6995
0.7038
0.7099
0.7168
0.7254
0.736
0.7464
0.7519
0.7536
0.748
0.7375
0.7272
0.721
0.7185
0.72
0.7234
0.7264
0.729
0.7311
0.7333
0.7357
0.7383
0.7412
0.7444
0.7478
0.7516
0.7563
0.7619
0.7689
0.7765
0.7849
0.7927
0.8014
0.8098
0.8177
0.8253
0.8331
0.8407
0.8488
0.8583
0.8676
0.8766
0.8847
0.8918
0.8976
0.9029
0.9078
0.9126
0.9172
0.9214
0.9254
0.9289
0.9322
0.9352
0.9381
0.9408
0.9434
0.9456
0.9477
0.9496
0.9514
0.9531
0.9546
0.9559
0.9572
0.9583
0.9591
0.9596
0.9596
0.9604
0.9634
0.9667
0.9713
0.9761
0.9807
0.9837
0.9861
0.9867
0.9868
0.9868
0.9834
0.9765
0.9619
0.04776
0.1024
0.2393
0.5164
0.6313
0.7014
0.6933
0.6288
0.592
0.6396
0.6996
0.6201
0.259
0.02631
0.001383
0.0001401
5.235e-05
5.559e-05
0.0001536
0.0006306
0.003324
0.01343
0.04173
0.08486
0.1392
0.1244
0.1221
0.1281
0.141
0.1517
0.1762
0.1902
0.1837
0.1504
0.1222
0.1068
0.1085
0.1205
0.1304
0.1366
0.1405
0.1406
0.1517
0.1691
0.1909
0.2157
0.2497
0.3065
0.3908
0.4641
0.5085
0.529
0.5151
0.5003
0.4869
0.4761
0.4687
0.4774
0.4842
0.4926
0.5046
0.5167
0.5259
0.5333
0.5418
0.5517
0.5632
0.5785
0.5925
0.605
0.6149
0.624
0.6311
0.6366
0.6414
0.6462
0.6503
0.6529
0.6539
0.6574
0.658
0.6586
0.6617
0.6629
0.6582
0.6559
0.6521
0.6471
0.6479
0.6507
0.652
0.6562
0.6603
0.6637
0.6664
0.6689
0.6715
0.6742
0.6772
0.6803
0.6839
0.6895
0.6973
0.7073
0.7181
0.73
0.7412
0.7532
0.7637
0.7744
0.7846
0.7941
0.8031
0.8122
0.8212
0.8305
0.8421
0.8538
0.8649
0.8756
0.8853
0.8933
0.9003
0.9064
0.9115
0.9163
0.9207
0.9248
0.9284
0.9318
0.935
0.9379
0.9406
0.9431
0.9453
0.9473
0.9492
0.9508
0.9524
0.9537
0.9549
0.9559
0.9567
0.9572
0.9571
0.9577
0.9607
0.9661
0.9715
0.9771
0.9811
0.9839
0.985
0.9856
0.9839
0.9816
0.9803
0.9759
0.9673
0.9488
0.05021
0.1064
0.2411
0.5169
0.6412
0.7215
0.7304
0.673
0.6144
0.6145
0.6188
0.4576
0.1392
0.0151
0.001231
0.0002399
0.0002009
0.0004151
0.001516
0.005359
0.01925
0.04586
0.08821
0.1355
0.1745
0.1475
0.1327
0.1211
0.125
0.1408
0.1718
0.1891
0.1855
0.1564
0.1271
0.115
0.1173
0.1234
0.1299
0.1322
0.1324
0.133
0.1416
0.1564
0.1751
0.1927
0.2121
0.2463
0.2895
0.3405
0.3746
0.3949
0.39
0.399
0.4075
0.4144
0.4221
0.4343
0.4423
0.4471
0.4588
0.4719
0.483
0.4912
0.5013
0.5099
0.5213
0.5353
0.5464
0.5541
0.5625
0.5711
0.5787
0.5852
0.5899
0.5933
0.5959
0.5979
0.598
0.6005
0.5994
0.5935
0.5889
0.5784
0.5594
0.5492
0.5449
0.5434
0.5523
0.562
0.5641
0.5684
0.5728
0.5769
0.5795
0.5816
0.5838
0.5891
0.5965
0.6048
0.6137
0.6253
0.6378
0.6535
0.67
0.6869
0.7017
0.7167
0.73
0.7426
0.7542
0.7649
0.7753
0.7863
0.7973
0.8084
0.8219
0.8354
0.8485
0.8614
0.873
0.8838
0.8939
0.9027
0.9093
0.915
0.9194
0.9234
0.9271
0.9306
0.9338
0.9368
0.9395
0.9418
0.9439
0.9458
0.9476
0.9491
0.9504
0.9516
0.9525
0.9532
0.9536
0.9535
0.9542
0.9573
0.963
0.9703
0.9767
0.9811
0.9831
0.9838
0.9826
0.9807
0.9761
0.9711
0.9651
0.9579
0.9456
0.9249
0.05453
0.1055
0.2355
0.5009
0.6562
0.7429
0.7636
0.7278
0.6388
0.5426
0.4361
0.2637
0.1095
0.02357
0.004072
0.001357
0.001574
0.003735
0.01188
0.03255
0.06932
0.1008
0.1307
0.1529
0.163
0.1449
0.1405
0.1219
0.1232
0.1371
0.1559
0.1661
0.1672
0.1455
0.1221
0.1155
0.1187
0.1259
0.1343
0.1407
0.1451
0.1477
0.1549
0.1661
0.1795
0.1914
0.2028
0.2246
0.2469
0.2757
0.2971
0.3117
0.3136
0.3285
0.3458
0.3627
0.3773
0.39
0.3992
0.4046
0.4166
0.43
0.4439
0.4533
0.4654
0.4713
0.48
0.4907
0.4972
0.5015
0.5079
0.5146
0.5209
0.5264
0.5296
0.5314
0.5322
0.5345
0.5358
0.5389
0.5376
0.5297
0.5216
0.5019
0.4733
0.4522
0.4471
0.4538
0.4659
0.4757
0.4747
0.4733
0.4746
0.4794
0.4827
0.4855
0.4907
0.4985
0.5105
0.5247
0.5396
0.5579
0.5758
0.5983
0.6206
0.6415
0.6596
0.6775
0.6931
0.7078
0.7214
0.7342
0.747
0.7605
0.7736
0.7865
0.8012
0.8153
0.8283
0.8422
0.8553
0.8692
0.8829
0.8953
0.9047
0.9122
0.9171
0.921
0.9247
0.9282
0.9315
0.9344
0.9369
0.9391
0.941
0.9427
0.9443
0.9456
0.9467
0.9476
0.9483
0.9486
0.9503
0.9523
0.956
0.9615
0.9683
0.9748
0.9799
0.9823
0.9819
0.98
0.9752
0.9694
0.9594
0.9502
0.9398
0.9305
0.9171
0.8974
0.06086
0.1116
0.2411
0.5039
0.6842
0.7623
0.7832
0.7685
0.6822
0.4924
0.2728
0.174
0.0962
0.04369
0.01714
0.009572
0.0125
0.0261
0.05224
0.08664
0.1173
0.1237
0.1392
0.1492
0.1535
0.1467
0.1532
0.1397
0.1399
0.1523
0.1668
0.1681
0.1655
0.1531
0.1364
0.1324
0.1343
0.1402
0.1468
0.1528
0.1583
0.1628
0.1692
0.1768
0.1851
0.1933
0.2027
0.2199
0.2379
0.2543
0.2684
0.2782
0.2841
0.2984
0.3125
0.3272
0.3413
0.3536
0.3627
0.3685
0.3797
0.3944
0.4092
0.4185
0.4318
0.4342
0.4392
0.4439
0.4491
0.4516
0.4577
0.4609
0.4622
0.4628
0.4628
0.4636
0.4638
0.4655
0.467
0.4716
0.4736
0.4696
0.4638
0.4458
0.4157
0.3968
0.3852
0.3847
0.385
0.3798
0.3654
0.3586
0.3639
0.3797
0.3916
0.3948
0.4006
0.409
0.4262
0.4491
0.4734
0.5006
0.5268
0.5542
0.5808
0.6023
0.6207
0.6389
0.6557
0.6724
0.689
0.7049
0.7207
0.737
0.7524
0.7671
0.782
0.796
0.8089
0.8229
0.8361
0.8505
0.8678
0.885
0.8979
0.9076
0.9134
0.9169
0.9205
0.924
0.9273
0.93
0.9323
0.9342
0.9359
0.9374
0.9388
0.9399
0.943
0.947
0.9508
0.9535
0.957
0.9591
0.963
0.9681
0.9738
0.9777
0.9802
0.9798
0.9758
0.9694
0.9577
0.9461
0.9325
0.9193
0.9032
0.8943
0.887
0.8735
0.06174
0.1081
0.2374
0.5056
0.7099
0.7697
0.7882
0.7837
0.713
0.5237
0.2565
0.1441
0.09197
0.06981
0.04749
0.0398
0.04684
0.07932
0.1128
0.1353
0.1372
0.1271
0.1337
0.1405
0.1538
0.1575
0.1666
0.1596
0.1622
0.1619
0.1671
0.1658
0.1597
0.1526
0.1456
0.1441
0.1461
0.153
0.1597
0.1661
0.1722
0.1801
0.1881
0.1959
0.2019
0.2098
0.2198
0.2307
0.2407
0.2484
0.2579
0.2672
0.2792
0.2936
0.3067
0.3191
0.3305
0.3397
0.3471
0.3527
0.3606
0.3713
0.3813
0.3905
0.4014
0.4013
0.4006
0.4003
0.4032
0.405
0.4108
0.4092
0.4041
0.4009
0.3986
0.3984
0.3974
0.3975
0.3956
0.3955
0.3951
0.3925
0.3911
0.3796
0.3454
0.3162
0.292
0.2795
0.271
0.2642
0.2506
0.249
0.2613
0.2829
0.3081
0.3226
0.3339
0.3475
0.3724
0.3993
0.4295
0.4616
0.4921
0.5221
0.5501
0.5711
0.59
0.6089
0.6263
0.6437
0.6619
0.6803
0.6992
0.719
0.7373
0.754
0.769
0.7822
0.7939
0.8062
0.8181
0.8317
0.85
0.8694
0.8865
0.8989
0.9066
0.9104
0.9136
0.917
0.9202
0.9229
0.9276
0.9331
0.9386
0.9431
0.9461
0.947
0.9507
0.9536
0.9556
0.956
0.9577
0.9584
0.9632
0.9675
0.9724
0.975
0.9758
0.9725
0.9635
0.948
0.9291
0.9107
0.896
0.8854
0.8742
0.8683
0.8636
0.8486
0.05434
0.09633
0.2168
0.4958
0.726
0.7707
0.7798
0.7704
0.7133
0.5286
0.2661
0.139
0.09508
0.0848
0.08642
0.09545
0.1054
0.1429
0.1688
0.1703
0.1481
0.1294
0.1271
0.1331
0.1473
0.1523
0.1607
0.1571
0.1721
0.1973
0.2086
0.2075
0.1898
0.1612
0.1417
0.1382
0.1394
0.1464
0.1581
0.1682
0.1776
0.1869
0.1966
0.2063
0.2143
0.2251
0.2387
0.2497
0.2576
0.263
0.2672
0.2724
0.284
0.2944
0.3062
0.3186
0.3313
0.3411
0.3494
0.3553
0.3599
0.3644
0.3675
0.3714
0.3811
0.3782
0.3747
0.3695
0.3673
0.3645
0.3688
0.3631
0.354
0.3484
0.3444
0.3425
0.3397
0.3361
0.3315
0.3274
0.3194
0.3116
0.3
0.2861
0.2582
0.2328
0.2087
0.1967
0.1842
0.1769
0.164
0.1652
0.182
0.2134
0.2471
0.2731
0.2872
0.3039
0.334
0.3671
0.4023
0.4346
0.4669
0.4964
0.5238
0.5446
0.5655
0.5855
0.6037
0.622
0.6408
0.66
0.6807
0.7029
0.7229
0.7414
0.7577
0.7719
0.7846
0.7961
0.806
0.816
0.8314
0.852
0.8759
0.8956
0.9093
0.9169
0.921
0.9238
0.9268
0.9295
0.9355
0.9423
0.947
0.9495
0.9498
0.9476
0.9498
0.9522
0.9544
0.9536
0.9538
0.9528
0.9561
0.959
0.963
0.9636
0.9612
0.9529
0.9358
0.9117
0.8896
0.8739
0.8638
0.8558
0.8442
0.8304
0.8171
0.7991
0.04879
0.08897
0.2077
0.4951
0.7346
0.7644
0.7567
0.7267
0.6794
0.5093
0.2641
0.1421
0.1036
0.1065
0.1245
0.1409
0.1325
0.1536
0.1695
0.17
0.1437
0.1234
0.1239
0.1361
0.1498
0.1476
0.1453
0.1367
0.1563
0.1957
0.2332
0.2296
0.2068
0.1599
0.1298
0.1213
0.1228
0.1316
0.1492
0.1616
0.17
0.1762
0.1832
0.1916
0.2029
0.217
0.2331
0.2473
0.2587
0.2679
0.2745
0.2816
0.2915
0.2997
0.3071
0.3155
0.3261
0.3363
0.3463
0.3552
0.3609
0.3638
0.3643
0.366
0.3754
0.3724
0.3623
0.3501
0.3375
0.3274
0.3287
0.3227
0.3112
0.3013
0.2924
0.2843
0.2782
0.2677
0.2547
0.242
0.2173
0.2021
0.19
0.1792
0.1627
0.1515
0.1338
0.1287
0.1243
0.1199
0.1116
0.116
0.1337
0.1682
0.2064
0.2392
0.2572
0.2777
0.309
0.3417
0.3738
0.4045
0.4379
0.4703
0.5006
0.5252
0.5487
0.5707
0.5895
0.6076
0.6259
0.6454
0.6668
0.6894
0.7101
0.7295
0.7488
0.7673
0.7842
0.799
0.8107
0.8189
0.8296
0.8468
0.87
0.8944
0.9132
0.925
0.9316
0.9353
0.9362
0.9359
0.9388
0.9434
0.9472
0.9488
0.9476
0.9435
0.9439
0.945
0.9443
0.94
0.9378
0.935
0.937
0.9372
0.9386
0.9349
0.9268
0.9078
0.8856
0.8604
0.8459
0.8396
0.8308
0.8152
0.7935
0.7701
0.7485
0.7293
0.05088
0.09106
0.2155
0.5014
0.7231
0.7407
0.7248
0.6825
0.6432
0.5291
0.3325
0.191
0.1452
0.1506
0.1627
0.1813
0.1586
0.1587
0.1616
0.159
0.1347
0.1201
0.1242
0.1369
0.148
0.1353
0.1168
0.1026
0.1237
0.17
0.2403
0.2774
0.2394
0.1664
0.1293
0.1105
0.1072
0.1135
0.1337
0.1461
0.1513
0.1507
0.1526
0.1583
0.1717
0.187
0.2042
0.2215
0.2385
0.2536
0.2647
0.2743
0.2836
0.2907
0.2966
0.3029
0.3107
0.3175
0.3255
0.3344
0.344
0.3496
0.3524
0.3558
0.3665
0.3615
0.3492
0.3305
0.3118
0.2976
0.2956
0.2868
0.2715
0.2578
0.2451
0.2316
0.2183
0.2008
0.1839
0.1701
0.1476
0.1358
0.1264
0.1206
0.1101
0.108
0.09808
0.0951
0.09251
0.09061
0.08567
0.09059
0.1071
0.138
0.1735
0.2066
0.2266
0.2483
0.2826
0.3172
0.3494
0.3816
0.4163
0.4507
0.483
0.5106
0.536
0.5594
0.5796
0.5989
0.6185
0.6392
0.6609
0.6844
0.7068
0.7277
0.7498
0.771
0.7902
0.8065
0.8193
0.8277
0.8356
0.8489
0.869
0.8935
0.9162
0.9317
0.9393
0.9425
0.9404
0.936
0.9348
0.9374
0.9376
0.9375
0.9327
0.9257
0.9233
0.9225
0.9196
0.9142
0.9082
0.8998
0.8968
0.8905
0.8859
0.8743
0.8522
0.8271
0.8051
0.7894
0.7862