/*--------------------------------*- C++ -*----------------------------------*\
| =========                 |                                                 |
| \\      /  F ield         | OpenFOAM: The Open Source CFD Toolbox           |
|  \\    /   O peration     | Version:  5.x                                   |
|   \\  /    A nd           | Web:      www.OpenFOAM.org                      |
|    \\/     M anipulation  |                                                 |
\*---------------------------------------------------------------------------*/
FoamFile
{
    version     2.0;
    format      ascii;
    class       volScalarField;
    location    "195";
    object      gamma;
}
// * * * * * * * * * * * * * * * * * * * * * * * * * * * * * * * * * * * * * //

dimensions      [0 0 0 0 0 0 0];

internalField   nonuniform List<scalar> 
86400
(
3.181e-08
4.265e-08
7.811e-08
1.852e-07
5.35e-07
1.01e-06
1.259e-06
1.454e-06
1.713e-06
1.545e-06
2.294e-06
2.622e-06
2.651e-06
1.602e-06
1.062e-06
1.058e-06
3.045e-06
1.014e-05
2.159e-05
2.821e-05
3.067e-05
4.26e-05
0.0001031
0.0001582
0.0001912
0.0003218
0.0003237
0.0003706
0.0003884
0.0003381
0.0002707
0.0002313
0.0002389
0.0002632
0.0003627
0.0005528
0.0007473
0.0009743
0.0009643
0.001164
0.001159
0.001196
0.001
0.000678
0.0006356
0.0009065
0.001645
0.002482
0.003433
0.002834
0.002646
0.002734
0.003017
0.003633
0.00439
0.006076
0.008555
0.009716
0.009195
0.008148
0.00618
0.006108
0.006042
0.006802
0.009355
0.01371
0.01451
0.01395
0.009484
0.007918
0.009816
0.01577
0.01872
0.01594
0.0134
0.01155
0.00962
0.01116
0.01411
0.01328
0.01299
0.01118
0.01045
0.01235
0.01833
0.02107
0.02263
0.0202
0.02075
0.02038
0.01527
0.0146
0.01488
0.01994
0.02254
0.02424
0.01882
0.0173
0.01679
0.01561
0.01369
0.009223
0.00606
0.003446
0.002091
0.002245
0.003841
0.006539
0.005069
0.002687
0.001127
0.0007268
0.0008134
0.00109
0.001122
0.0009941
0.0008577
0.0007468
0.0007054
0.0006866
0.0006683
0.000638
0.0005333
0.0003931
0.0002994
0.0002541
0.0002179
0.0002098
0.0001955
0.0001686
0.0001327
0.0001434
0.0001176
7.295e-05
4.76e-05
3.54e-05
4.201e-05
7.708e-05
5.145e-05
1.513e-05
4.76e-06
2.167e-06
2.075e-06
1.379e-06
2.658e-07
2.851e-08
3.51e-09
2.79e-10
6.694e-11
5.849e-11
8.766e-11
4.348e-10
6.733e-09
5.887e-08
7.7e-07
6.216e-06
2.837e-05
0.0001149
0.07497
0.9996
4.442e-08
4.83e-08
7.75e-08
1.56e-07
4.69e-07
8.944e-07
1.063e-06
1.007e-06
7.693e-07
5.506e-07
8.096e-07
1.201e-06
2.052e-06
2.566e-06
2.027e-06
1.377e-06
3.142e-06
1.005e-05
2.727e-05
7.314e-05
9.855e-05
0.0001189
0.0001826
0.0002562
0.0003122
0.0004092
0.0004489
0.0005255
0.0006375
0.0004833
0.0003933
0.0003494
0.0003972
0.0004743
0.0007141
0.001113
0.001765
0.002697
0.003297
0.003966
0.003427
0.002815
0.002315
0.001637
0.001231
0.001514
0.002187
0.003152
0.004916
0.005361
0.005663
0.006691
0.00854
0.01062
0.008898
0.006962
0.00553
0.004211
0.003302
0.00337
0.002924
0.002828
0.002545
0.002478
0.002832
0.004811
0.005991
0.007123
0.006052
0.006447
0.009063
0.01374
0.01057
0.006663
0.003886
0.003809
0.005684
0.01088
0.01629
0.01592
0.01401
0.01175
0.01308
0.01652
0.02681
0.03331
0.03946
0.03724
0.04235
0.04876
0.04616
0.04766
0.04539
0.04003
0.03274
0.02584
0.01755
0.0144
0.01301
0.0113
0.01108
0.01109
0.01224
0.01071
0.00679
0.005365
0.006497
0.008583
0.007574
0.004664
0.001817
0.001028
0.0007333
0.0006317
0.0005187
0.0005225
0.0007409
0.001348
0.002223
0.002499
0.002466
0.002309
0.001864
0.001342
0.001042
0.0009159
0.0007986
0.0007844
0.0007102
0.0005932
0.0004683
0.0003859
0.0002416
0.0001565
0.0001218
9.167e-05
9.786e-05
0.0001175
6.829e-05
1.772e-05
6.997e-06
2.421e-06
1.21e-06
5.96e-07
1.245e-07
2.198e-08
5.017e-09
1.335e-09
1.667e-09
3.267e-09
1.004e-08
4.161e-08
3.43e-07
2.4e-06
4.248e-05
0.0009174
0.0294
0.7569
0.9862
1
7.885e-08
7.59e-08
1.066e-07
1.731e-07
4.651e-07
7.946e-07
8.335e-07
6.772e-07
3.953e-07
3.318e-07
5.329e-07
1.265e-06
2.573e-06
4.777e-06
3.695e-06
3.147e-06
8.541e-06
3.025e-05
5.937e-05
0.0001455
0.0001329
0.0001401
0.0002171
0.0003426
0.0003518
0.0005315
0.0007019
0.0009879
0.00142
0.001173
0.0008887
0.0009858
0.001115
0.001115
0.001147
0.001211
0.001578
0.002282
0.002126
0.002135
0.001559
0.001359
0.001138
0.001068
0.0009284
0.001376
0.002618
0.004441
0.007554
0.009619
0.007806
0.005811
0.004594
0.00399
0.002764
0.002602
0.002187
0.001583
0.001157
0.001205
0.001223
0.00137
0.001524
0.001978
0.001995
0.002545
0.002972
0.003645
0.00334
0.004305
0.005791
0.006192
0.003558
0.00259
0.002223
0.003964
0.009644
0.02136
0.0304
0.03261
0.02827
0.02146
0.02326
0.02865
0.0505
0.06189
0.07455
0.07539
0.06881
0.05628
0.03825
0.02576
0.01612
0.01486
0.01373
0.01302
0.01209
0.01226
0.01062
0.009451
0.01052
0.01334
0.01876
0.01949
0.01528
0.0127
0.0113
0.01295
0.01134
0.007268
0.003894
0.003013
0.001804
0.00131
0.00103
0.001147
0.001479
0.002186
0.002623
0.002022
0.00164
0.001653
0.001397
0.001057
0.0008193
0.0006869
0.0005607
0.0005151
0.0004343
0.000395
0.0003674
0.000299
0.0001652
8.009e-05
5.427e-05
4.433e-05
6.77e-05
0.0001047
8.359e-05
2.979e-05
9.674e-06
3.022e-06
1.644e-06
8.885e-07
3.081e-07
8.005e-08
2.746e-08
1.518e-08
3.963e-08
1.284e-07
5.483e-07
1.96e-06
1.604e-05
0.0001549
0.003564
0.1677
0.933
0.9981
1
1
1.484e-07
1.38e-07
1.514e-07
1.85e-07
3.897e-07
5.368e-07
4.401e-07
3.018e-07
1.859e-07
2.322e-07
3.431e-07
4.383e-07
4.71e-07
1.405e-06
1.802e-06
3.165e-06
9.24e-06
1.593e-05
1.35e-05
1.596e-05
1.137e-05
7.973e-06
1.872e-05
4.028e-05
4.313e-05
8.308e-05
0.0001647
0.0002919
0.0005781
0.0006902
0.0005405
0.0008336
0.001227
0.001454
0.00147
0.001431
0.001562
0.00223
0.001685
0.001591
0.001308
0.001283
0.001594
0.002009
0.001302
0.001267
0.001236
0.00146
0.002106
0.003152
0.002253
0.00145
0.001258
0.0012
0.0008582
0.0008365
0.0006235
0.0004417
0.0003891
0.0005435
0.0006814
0.0009688
0.001305
0.001521
0.001387
0.001689
0.001757
0.001969
0.001935
0.003317
0.005873
0.006157
0.00408
0.003511
0.002541
0.005061
0.01223
0.0221
0.02243
0.02498
0.02087
0.0171
0.0176
0.01826
0.02222
0.02427
0.02895
0.03189
0.03578
0.04188
0.04571
0.042
0.02694
0.02337
0.01904
0.01683
0.01667
0.01846
0.01595
0.01589
0.01579
0.016
0.02405
0.02589
0.01831
0.01394
0.008707
0.008326
0.007599
0.006621
0.003577
0.003215
0.001724
0.001112
0.0008099
0.001122
0.001989
0.003646
0.004507
0.003276
0.002388
0.00247
0.002196
0.001771
0.00143
0.001209
0.0009746
0.0008813
0.0007856
0.0007731
0.000801
0.0006778
0.0003676
0.0001784
0.0001078
5.15e-05
4.088e-05
2.753e-05
1.405e-05
6.239e-06
2.123e-06
6.953e-07
4.922e-07
4.756e-07
3.854e-07
2.428e-07
2.155e-07
2.864e-07
2.036e-06
1.33e-05
0.0001117
0.0005942
0.004975
0.06897
0.7937
0.9882
0.9998
1
1
1
3.558e-07
3.911e-07
3.75e-07
3.963e-07
5.262e-07
4.488e-07
2.106e-07
1.579e-07
1.334e-07
2.335e-07
2.756e-07
1.59e-07
7.044e-08
2.267e-07
4.523e-07
2.577e-06
1.716e-05
1.13e-05
2.234e-06
1.399e-06
1.159e-06
9.31e-07
4.289e-06
1.009e-05
1.294e-05
4.185e-05
0.0001662
0.0006458
0.001705
0.001675
0.0005998
0.0005167
0.000497
0.0005352
0.0005817
0.0005653
0.0004706
0.0007798
0.0008814
0.001378
0.001103
0.0007999
0.0003457
0.000195
7.8e-05
6.873e-05
5.743e-05
7.961e-05
0.0001802
0.0005513
0.0006976
0.0007419
0.0006573
0.000729
0.0006186
0.0006821
0.0005791
0.0004458
0.0005669
0.001082
0.001844
0.003106
0.005017
0.005863
0.003713
0.002423
0.001837
0.001534
0.001316
0.002061
0.003661
0.003294
0.003207
0.004074
0.004547
0.007157
0.01363
0.0137
0.01058
0.01305
0.01166
0.009878
0.01076
0.01273
0.01749
0.0239
0.03085
0.03205
0.03338
0.03656
0.03502
0.03875
0.02676
0.02227
0.01602
0.01532
0.01031
0.01061
0.01026
0.008817
0.00549
0.002659
0.002103
0.00241
0.003001
0.006075
0.007183
0.0062
0.00528
0.007727
0.005385
0.005881
0.003639
0.002614
0.001777
0.001677
0.001516
0.001569
0.001146
0.0008793
0.0006441
0.0006967
0.0006507
0.0005867
0.0005283
0.0004768
0.0003968
0.0003703
0.0003556
0.0003907
0.0004377
0.0003223
0.0001321
4.344e-05
8.472e-06
1.99e-06
1.22e-06
1.47e-06
1.127e-06
9.313e-07
4.66e-07
2.798e-07
3.422e-07
7.22e-07
1.641e-06
3.092e-06
6.956e-06
2.053e-05
0.0001926
0.001298
0.01202
0.09124
0.6579
0.9648
0.9984
1
1
1
1
1
5.731e-07
8.652e-07
8.216e-07
8.656e-07
5.897e-07
3.239e-07
1.156e-07
1.04e-07
1.499e-07
4.506e-07
5.647e-07
1.467e-07
3.018e-08
6.101e-08
3.893e-07
3.444e-06
1.841e-05
6.797e-06
1.058e-06
7.956e-07
1.405e-06
1.782e-06
1.102e-05
6.728e-06
3.249e-06
4.396e-06
1.472e-05
7.161e-05
0.0004554
0.0004453
0.000126
8.213e-05
7.433e-05
9.027e-05
0.0001871
0.00024
0.0001407
0.0001628
0.0001873
0.0001772
7.501e-05
3.338e-05
6.588e-06
2.032e-06
7.297e-07
2.564e-07
4.424e-08
4.345e-08
1.129e-07
6.45e-07
1.737e-06
5.499e-06
1.392e-05
2.837e-05
3.917e-05
3.753e-05
2.613e-05
3.072e-05
0.0001332
0.0006724
0.002351
0.003744
0.00301
0.002329
0.001277
0.0008171
0.001434
0.002171
0.002255
0.003812
0.007152
0.005437
0.004809
0.004691
0.003154
0.002644
0.001652
0.001143
0.0009969
0.001991
0.003973
0.01082
0.01855
0.02532
0.03005
0.03257
0.03273
0.03438
0.04633
0.07094
0.06069
0.02232
0.003871
0.0008408
0.0002208
0.0001445
7.299e-05
7.92e-05
8.401e-05
0.0001543
0.0002286
0.0002452
0.0001992
0.0001878
0.0001997
0.000495
0.0007346
0.001357
0.002061
0.002129
0.001195
0.001225
0.000966
0.0009568
0.0007707
0.0006902
0.0005694
0.0005386
0.0004366
0.0003779
0.0002787
0.0002761
0.0002545
0.0002459
0.0002327
0.0001974
0.0001525
0.0001114
7.353e-05
4.172e-05
3.131e-05
2.521e-05
1.879e-05
1.379e-05
4.571e-06
1.07e-06
4.334e-07
4.208e-07
4.325e-07
6.592e-07
5.177e-07
5.645e-07
1.142e-06
4.973e-06
2.655e-05
0.0001138
0.0004889
0.00257
0.02063
0.1598
0.8112
0.9726
0.9975
0.9999
1
1
1
1
1
1
6.73e-07
1.388e-06
1.169e-06
1.001e-06
5.142e-07
2.581e-07
9.12e-08
1.555e-07
5.83e-07
2.515e-06
2.606e-06
4.648e-07
3.219e-08
3.543e-08
1.081e-07
1.61e-06
1.662e-05
1.826e-05
5.374e-06
5.768e-06
1.427e-05
1.701e-05
6.418e-05
1.265e-05
3.466e-06
2.35e-06
5.72e-06
2.185e-05
0.0002091
0.000228
6.643e-05
2.602e-05
2.571e-05
4.432e-05
0.0001105
0.0001237
4.255e-05
3.276e-05
5.614e-05
5.773e-05
1.537e-05
2.872e-06
1.766e-07
2.223e-08
6.781e-09
7.997e-10
5.552e-11
3.734e-11
9.779e-11
1.014e-09
5.302e-09
2.581e-08
1.033e-07
3.542e-07
7.105e-07
7.927e-07
7.556e-07
1.685e-06
2.247e-05
0.0002146
0.001522
0.003436
0.002837
0.002917
0.002954
0.002071
0.004718
0.007905
0.007464
0.006847
0.01033
0.00352
0.001342
0.0007823
0.0005697
0.0006997
0.0003783
0.0001951
7.233e-05
7.755e-05
0.0001986
0.001759
0.006117
0.006891
0.005734
0.003756
0.003348
0.006307
0.02956
0.1043
0.07035
0.01953
0.002415
0.0004045
8.756e-05
5.603e-05
1.549e-05
1.024e-05
6.007e-06
1.788e-05
4.969e-05
8.001e-05
7.926e-05
3.428e-05
1.316e-05
1.076e-05
1.08e-05
1.54e-05
6.787e-05
0.0001436
0.000248
0.0004957
0.00059
0.0008033
0.0008514
0.0007711
0.0004774
0.0003539
0.0002457
0.0002632
0.0002461
0.0002151
0.000144
7.409e-05
3.876e-05
2.478e-05
2.121e-05
1.983e-05
1.701e-05
8.381e-06
5.464e-06
5.417e-06
6.744e-06
8.504e-06
4.906e-06
1.743e-06
1.241e-06
2.681e-06
6.094e-06
2.212e-05
4.48e-05
8.442e-05
0.0002243
0.001067
0.005466
0.02897
0.1662
0.7115
0.947
0.992
0.9994
1
1
1
1
1
1
1
1
1
1.187e-06
2.309e-06
1.379e-06
1e-06
5.667e-07
3.227e-07
1.84e-07
7.061e-07
2.433e-06
4.788e-06
4.751e-06
6.701e-07
4.261e-08
3.645e-08
8.955e-08
9.518e-07
1.131e-05
3.702e-05
5.674e-05
0.0002192
0.0004406
0.0003924
0.0006963
0.000138
2.533e-05
4.684e-06
7.133e-06
1.591e-05
0.0001186
0.0001801
8.556e-05
7.077e-05
7.083e-05
0.0001206
0.0002206
0.0001997
6.407e-05
6.29e-05
0.0001751
7.968e-05
1.099e-05
7.124e-07
3.827e-08
2.827e-09
1.048e-09
5.734e-11
2.359e-12
1.243e-12
3.774e-12
4.707e-11
3.735e-10
3.457e-09
3.334e-08
2.307e-07
4.746e-07
1.785e-07
6.488e-08
8.303e-08
1.054e-06
1.626e-05
0.0003053
0.001592
0.002088
0.002953
0.004011
0.00336
0.006642
0.006537
0.002757
0.0006792
0.0003983
0.0001282
3.983e-05
2.157e-05
2.789e-05
4.616e-05
3.676e-05
8.29e-05
5.968e-05
0.0001256
0.0004651
0.008699
0.04417
0.06657
0.03676
0.029
0.1464
0.7821
0.9776
0.9944
0.9906
0.9595
0.7499
0.1144
0.0279
0.01202
0.001314
0.0003248
7.446e-05
7.384e-05
9.588e-05
0.0002552
7.559e-05
5.499e-06
4.365e-07
1.677e-07
3.608e-07
1.152e-06
6.952e-06
6.425e-06
8.806e-06
1.361e-05
2.304e-05
4.442e-05
4.84e-05
4.149e-05
4.209e-05
4.299e-05
4.158e-05
8.019e-05
0.0001439
0.0002059
0.0001843
9.155e-05
3.674e-05
2.109e-05
2.012e-05
2.197e-05
2.294e-05
1.129e-05
7.02e-06
6.965e-06
1.838e-05
5.103e-05
8.368e-05
6.156e-05
5.711e-05
0.0001002
0.0002945
0.001606
0.00618
0.02045
0.07132
0.3391
0.8192
0.9689
0.9948
0.9994
1
1
1
1
1
1
1
1
1
1
1
1
2.011e-06
2.7e-06
1.244e-06
7.979e-07
4.819e-07
3.841e-07
5.618e-07
1.865e-06
3.386e-06
4.051e-06
2.05e-06
4.217e-07
1.017e-07
1.122e-07
2.933e-07
1.582e-06
5.755e-06
2.156e-05
5.767e-05
9.208e-05
0.0001977
0.0003648
0.00125
0.0008649
0.0003191
8.788e-05
3.952e-05
5.49e-05
0.0001816
0.0003161
0.0002298
0.0003633
0.000312
0.0004264
0.0003487
0.0001533
2.866e-05
4.501e-05
0.0001194
2.188e-05
1.847e-06
8.996e-08
7.333e-09
9.456e-10
9.388e-10
1.192e-10
1.426e-11
9.054e-12
2.484e-11
5.79e-11
2.116e-10
1.011e-09
6.643e-09
3.958e-08
9.499e-08
4.46e-08
1.309e-08
1.276e-08
9.66e-08
1.94e-06
8.763e-05
0.001101
0.003462
0.005844
0.004902
0.001508
0.0008686
0.000365
9.48e-05
1.885e-05
1.133e-05
6.196e-06
3.062e-06
2.587e-06
1.612e-05
0.0001867
0.0007581
0.00725
0.01857
0.05785
0.5137
0.9378
0.9865
0.9939
0.9947
0.9968
0.9991
0.9998
1
1
0.9999
0.9996
0.9983
0.9954
0.9955
0.9932
0.9683
0.7955
0.1178
0.02799
0.01773
0.02159
0.003154
8.756e-05
4.864e-06
4.134e-07
2.315e-07
3.266e-07
8.096e-07
2.077e-07
1.527e-07
1.043e-07
1.336e-07
3.809e-07
1.687e-06
7.272e-06
1.682e-05
1.618e-05
1.107e-05
1.071e-05
1.749e-05
3.971e-05
5.601e-05
3.812e-05
1.663e-05
8.602e-06
9.839e-06
1.668e-05
2.877e-05
2.677e-05
3.08e-05
5.506e-05
0.000175
0.000717
0.002767
0.006085
0.01369
0.04335
0.2204
0.7696
0.9446
0.9866
0.9959
0.9986
0.9997
1
1
1
1
1
1
1
1
1
1
1
1
1
1
1
1.556e-06
1.554e-06
8.518e-07
6.201e-07
5.676e-07
7.901e-07
1.077e-06
1.864e-06
1.96e-06
1.641e-06
5.479e-07
2.339e-07
1.882e-07
3.369e-07
1.265e-06
3.612e-06
1.467e-05
1.909e-05
2.815e-05
1.459e-05
2.238e-05
6.487e-05
0.0003933
0.001106
0.001006
0.0003438
7.901e-05
9.552e-05
0.000135
0.0003677
0.0007083
0.002146
0.002087
0.002273
0.0005821
0.0001556
5.274e-05
0.0001011
9.294e-05
6.259e-06
3.41e-07
1.536e-08
2.803e-09
1.392e-09
2.136e-09
5.468e-10
2.879e-10
3.502e-10
3.637e-10
2.173e-10
1.991e-10
2.684e-10
2.06e-09
2.266e-08
7.584e-08
5.694e-08
2.85e-08
2.298e-08
8.935e-08
1.659e-06
5.183e-05
0.0008484
0.001999
0.001927
0.0006622
9.946e-05
2.124e-05
1e-05
5.537e-06
2.947e-06
5.44e-06
1.222e-05
4.134e-05
0.0001878
0.001977
0.02187
0.1573
0.7949
0.9567
0.9906
0.9988
0.9999
1
1
1
1
1
1
1
1
1
1
1
1
1
1
1
0.9999
0.9991
0.9952
0.9851
0.9679
0.8473
0.09562
0.00193
0.000112
1.895e-05
9.896e-06
6.159e-06
3.016e-07
2.661e-08
4.647e-09
2.695e-09
2.771e-09
2.557e-08
3.513e-07
1.599e-06
3.303e-06
3.899e-06
2.74e-06
5.609e-06
3.32e-05
9.246e-05
0.0001587
0.0001799
0.0001775
0.0003233
0.0007986
0.002183
0.00357
0.006094
0.012
0.0342
0.2013
0.7637
0.9388
0.9838
0.9948
0.9982
0.9996
0.9999
1
1
1
1
1
1
1
1
1
1
1
1
1
1
1
1
1
1
1
1.283e-06
9.72e-07
7.317e-07
9.196e-07
1.515e-06
1.067e-06
4.476e-07
2.949e-07
1.773e-07
1.711e-07
1.461e-07
1.47e-07
4.354e-07
2.004e-06
5.36e-06
1.572e-05
3.047e-05
1.289e-05
9.955e-06
2.704e-06
3.861e-06
7.98e-06
9.364e-05
0.0006456
0.001428
0.0009214
0.0006644
0.0005363
0.0003542
0.0006386
0.0007877
0.001221
0.000775
0.000563
0.0001578
5.04e-05
3.652e-05
0.0001499
8.635e-05
7.003e-06
2.243e-07
1.471e-08
1.617e-09
7.675e-10
6.615e-10
8.275e-10
6.489e-09
2.719e-08
2.95e-08
4.631e-09
4.27e-10
1.291e-10
1.01e-09
3.169e-08
3.916e-07
1.513e-06
1.523e-06
8.967e-07
1.64e-06
1.763e-05
0.0001507
0.0005318
0.0004432
0.0001766
3.358e-05
7.423e-06
2.833e-06
4.341e-06
1.148e-05
3.269e-05
0.0001472
0.002157
0.01733
0.1824
0.8688
0.9827
0.9978
0.9997
1
1
1
1
1
1
1
1
1
1
1
1
1
1
1
1
1
1
1
1
1
1
1
0.9999
0.9997
0.9981
0.9864
0.877
0.1647
0.0145
0.001856
6.905e-05
2.752e-06
1.672e-07
4.357e-08
3.108e-08
3.214e-07
4.417e-06
1.697e-05
2.798e-05
3.592e-05
2.004e-05
3.854e-05
0.0002464
0.00108
0.003647
0.008508
0.01105
0.0149
0.03439
0.1767
0.7336
0.9487
0.9874
0.9958
0.9986
0.9997
0.9999
1
1
1
1
1
1
1
1
1
1
1
1
1
1
1
1
1
1
1
1
1
1
1
1
1.146e-06
8.396e-07
8.368e-07
1.42e-06
2.658e-06
1.794e-06
3.432e-07
1.171e-07
3.73e-08
8.1e-08
1.16e-07
6.624e-07
3.448e-06
8.783e-06
2.137e-05
7.136e-05
6.604e-05
3.631e-05
1.856e-05
4.287e-06
5.993e-06
1.617e-05
0.0001552
0.0006299
0.001342
0.001123
0.001649
0.001374
0.00129
0.001511
0.001613
0.001366
0.000601
0.0002212
0.000122
6.263e-05
7.762e-05
0.0003841
0.0001035
6.2e-06
1.519e-07
5.005e-09
3.247e-10
1.722e-10
8.085e-11
2.68e-10
4.77e-09
8.243e-08
9.942e-08
1.349e-08
5.296e-10
1.631e-10
1.941e-09
1.391e-07
3.779e-06
1.747e-05
2.596e-05
2.131e-05
2.15e-05
4.743e-05
3.691e-05
1.9e-05
7.538e-06
3.613e-06
1.611e-06
3.129e-06
1.163e-05
0.0001086
0.001521
0.01629
0.1682
0.8737
0.9838
0.9978
0.9998
1
1
1
1
1
1
1
1
1
1
1
1
1
1
1
1
1
1
1
1
1
1
1
1
1
1
1
1
1
1
0.9999
0.9992
0.997
0.9829
0.8618
0.1291
0.008571
0.002721
0.002265
0.007437
0.0236
0.02323
0.01903
0.01882
0.00938
0.009566
0.02317
0.08318
0.6234
0.9283
0.9835
0.9948
0.9973
0.9989
0.9997
1
1
1
1
1
1
1
1
1
1
1
1
1
1
1
1
1
1
1
1
1
1
1
1
1
1
1
1
1
1
4.808e-07
4.511e-07
5.284e-07
8.779e-07
2.432e-06
2.078e-06
3.406e-07
1.076e-07
8.686e-08
2.192e-07
6.885e-07
6.184e-06
1.553e-05
3.425e-05
5.829e-05
9.191e-05
7.991e-05
6.054e-05
2.988e-05
9.382e-06
1.256e-05
3.189e-05
0.0001722
0.0003948
0.0008953
0.0009982
0.00274
0.002884
0.003903
0.003344
0.004203
0.002705
0.001502
0.0007696
0.0004006
0.0002357
0.0003182
0.001025
0.0001589
1.265e-05
4.404e-07
1.612e-08
5.466e-10
3.401e-10
1.372e-10
7.657e-10
2.612e-08
9.51e-07
8.96e-07
1.556e-07
3.023e-09
5.363e-10
3.163e-09
1.949e-07
3.639e-06
1.969e-05
3.646e-05
3.229e-05
2.755e-05
2.112e-05
7.046e-06
2.075e-06
8.16e-07
1.457e-06
7.044e-06
0.0001005
0.002564
0.09698
0.8154
0.9749
0.9962
0.9996
1
1
1
1
1
1
1
1
1
1
1
1
1
1
1
1
1
1
1
1
1
1
1
1
1
1
1
1
1
1
1
1
1
1
1
1
1
0.9999
0.9994
0.9987
0.9984
0.998
0.9985
0.9988
0.9979
0.9977
0.998
0.9975
0.9976
0.998
0.9986
0.9996
0.9999
1
1
1
1
1
1
1
1
1
1
1
1
1
1
1
1
1
1
1
1
1
1
1
1
1
1
1
1
1
1
1
1
1
1
1
5.607e-07
4.776e-07
6.319e-07
8.41e-07
2.366e-06
3.508e-06
9.78e-07
6.252e-07
4.645e-07
1.242e-06
3.897e-06
2.468e-05
3.321e-05
4.888e-05
4.557e-05
5.388e-05
5.965e-05
5.732e-05
4.33e-05
3.89e-05
7.185e-05
0.0001497
0.0003092
0.0003395
0.0003822
0.0003586
0.001205
0.001406
0.002754
0.004419
0.006982
0.006039
0.005573
0.002621
0.000966
0.0003776
0.000288
0.0006558
0.0002548
7.4e-05
6.217e-06
4.156e-07
1.992e-08
1.298e-08
6.709e-09
3.949e-08
6.474e-07
1.906e-05
2.591e-05
8.766e-06
2.838e-07
7.295e-08
2.023e-07
2.202e-06
1.458e-05
2.115e-05
1.532e-05
9.728e-06
5.695e-06
3.543e-06
2.539e-06
2.008e-06
6.451e-06
8.882e-05
0.002821
0.1294
0.9043
0.9919
0.9991
0.9999
1
1
1
1
1
1
1
1
1
1
1
1
1
1
1
1
1
1
1
1
1
1
1
1
1
1
1
1
1
1
1
1
1
1
1
1
1
1
1
1
1
1
1
1
1
1
1
1
1
1
1
1
1
1
1
1
1
1
1
1
1
1
1
1
1
1
1
1
1
1
1
1
1
1
1
1
1
1
1
1
1
1
1
1
1
1
1
1
1
1
1.356e-06
1.092e-06
1.826e-06
9.287e-07
1.671e-06
1.319e-06
8.134e-07
1.873e-06
4.654e-06
4.195e-06
6.085e-06
1.297e-05
2.106e-05
3.03e-05
3.614e-05
1.731e-05
3.734e-06
9.679e-07
4.085e-07
3.388e-07
1.246e-06
6.589e-06
3.703e-05
9.536e-05
0.0001685
0.0001829
0.000425
0.0004199
0.0006227
0.0007846
0.001336
0.00243
0.004811
0.003329
0.001093
0.0003108
0.0001681
0.0004175
0.0004117
0.0004034
0.0001293
2.203e-05
2.5e-06
1.955e-06
1.114e-06
6.945e-06
4.382e-05
0.0005118
0.0008144
0.0004439
4.591e-05
9.863e-06
8.103e-06
1.197e-05
2.178e-05
9.203e-06
4.52e-06
2.299e-06
2.654e-06
4.903e-06
2.504e-05
0.0001356
0.002692
0.1452
0.9136
0.992
0.9995
1
1
1
1
1
1
1
1
1
1
1
1
1
1
1
1
1
1
1
1
1
1
1
1
1
1
1
1
1
1
1
1
1
1
1
1
1
1
1
1
1
1
1
1
1
1
1
1
1
1
1
1
1
1
1
1
1
1
1
1
1
1
1
1
1
1
1
1
1
1
1
1
1
1
1
1
1
1
1
1
1
1
1
1
1
1
1
1
1
1
1
1
1
4.266e-06
3.893e-06
8.474e-06
1.836e-06
1.378e-06
9.546e-07
1.428e-06
7.818e-06
2.557e-05
1.199e-05
7.07e-06
4.786e-06
3.8e-06
1.761e-05
1.185e-05
1.211e-06
1.282e-07
1.52e-08
5.407e-09
4.591e-09
3.652e-08
7.516e-07
1.105e-05
6.658e-05
0.0002491
0.0002443
0.0004291
0.0005178
0.0005003
0.0005389
0.00102
0.002703
0.007221
0.007558
0.002468
0.0005404
0.0002835
0.0004985
0.0007735
0.001436
0.001479
0.0006361
0.0002067
0.0002309
0.0001524
0.000179
0.0002867
0.0009318
0.002297
0.003951
0.00214
0.0005791
0.000273
7.023e-05
4.126e-05
9.182e-06
5.738e-06
5.419e-06
3.332e-05
0.0001577
0.005521
0.1464
0.8934
0.9915
0.9995
1
1
1
1
1
1
1
1
1
1
1
1
1
1
1
1
1
1
1
1
1
1
1
1
1
1
1
1
1
1
1
1
1
1
1
1
1
1
1
1
1
1
1
1
1
1
1
1
1
1
1
1
1
1
1
1
1
1
1
1
1
1
1
1
1
1
1
1
1
1
1
1
1
1
1
1
1
1
1
1
1
1
1
1
1
1
1
1
1
1
1
1
1
1
1
9.198e-06
9.974e-06
4.159e-05
8.021e-06
1.562e-06
6.873e-07
1.972e-06
1.179e-05
4.148e-05
2.142e-05
6.374e-06
3.45e-06
4.745e-06
3.303e-05
4.611e-06
1.354e-07
1.165e-08
1.595e-09
1.092e-09
1.041e-09
1.204e-08
3.035e-07
6.277e-06
6.279e-05
0.0005669
0.0004192
0.0008424
0.0009725
0.0005466
0.0003897
0.0004931
0.001478
0.004679
0.006114
0.002639
0.0009667
0.0008846
0.00116
0.002146
0.003117
0.003873
0.003124
0.002736
0.002163
0.001266
0.0006256
0.0004761
0.0008221
0.002138
0.003944
0.002211
0.0006555
0.0002793
7.435e-05
5.907e-05
3.154e-05
5.838e-05
0.0002631
0.004905
0.1305
0.8978
0.9904
0.9995
1
1
1
1
1
1
1
1
1
1
1
1
1
1
1
1
1
1
1
1
1
1
1
1
1
1
1
1
1
1
1
1
1
1
1
1
1
1
1
1
1
1
1
1
1
1
1
1
1
1
1
1
1
1
1
1
1
1
1
1
1
1
1
1
1
1
1
1
1
1
1
1
1
1
1
1
1
1
1
1
1
1
1
1
1
1
1
1
1
1
1
1
1
1
1
1
1
1.45e-05
2.005e-05
6.269e-05
1.472e-05
2.036e-06
2.323e-06
5.968e-06
4.151e-05
6.402e-05
2.675e-05
5.277e-06
2.259e-06
3.443e-06
1.653e-05
6.011e-07
2.716e-08
5.783e-09
2.752e-09
4.548e-09
5.051e-09
3.756e-08
3.749e-07
8.08e-06
6.422e-05
0.0006461
0.000522
0.001007
0.001448
0.001125
0.0009894
0.0009666
0.001872
0.004872
0.005737
0.002859
0.001644
0.002138
0.002487
0.00308
0.002947
0.003987
0.004869
0.01025
0.01033
0.006108
0.00179
0.000579
0.0003541
0.0005745
0.001116
0.0007743
0.0004222
0.0003112
0.0001641
0.0002078
0.0007279
0.006895
0.09709
0.8728
0.9902
0.9994
1
1
1
1
1
1
1
1
1
1
1
1
1
1
1
1
1
1
1
1
1
1
1
1
1
1
1
1
1
1
1
1
1
1
1
1
1
1
1
1
1
1
1
1
1
1
1
1
1
1
1
1
1
1
1
1
1
1
1
1
1
1
1
1
1
1
1
1
1
1
1
1
1
1
1
1
1
1
1
1
1
1
1
1
1
1
1
1
1
1
1
1
1
1
1
1
1
1
1
1.081e-05
1.928e-05
4.014e-05
1.124e-05
1.353e-06
3.639e-06
1.781e-05
0.0001852
0.0001848
6.073e-05
1.083e-05
3.136e-06
2.268e-06
5.414e-06
1.968e-07
1.837e-08
2.572e-08
6.248e-08
1.77e-07
1.976e-07
6.999e-07
2.7e-06
4.158e-05
0.0002502
0.001816
0.00134
0.002142
0.002328
0.001726
0.001122
0.001186
0.002174
0.005685
0.007563
0.004523
0.003177
0.004865
0.006114
0.005301
0.002559
0.001831
0.001598
0.003789
0.005422
0.004275
0.001614
0.00077
0.0001787
9.378e-05
0.0001128
8.477e-05
0.0001125
0.0003413
0.0006948
0.002543
0.03819
0.7441
0.9785
0.9991
1
1
1
1
1
1
1
1
1
1
1
1
1
1
1
1
1
1
1
1
1
1
1
1
1
1
1
1
1
1
1
1
1
1
1
1
1
1
1
1
1
1
1
1
1
1
1
1
1
1
1
1
1
1
1
1
1
1
1
1
1
1
1
1
1
1
1
1
1
1
1
1
1
1
1
1
1
1
1
1
1
1
1
1
1
1
1
1
1
1
1
1
1
1
1
1
1
1
1
1
1
1.59e-05
1.989e-05
2.91e-05
1.163e-05
1.866e-06
1.283e-05
5.576e-05
0.0003719
0.0003187
0.0001494
3.386e-05
1.255e-05
6.152e-06
6.787e-06
4.703e-07
1.331e-07
6.641e-07
2.871e-06
8.244e-06
8.209e-06
1.866e-05
3.428e-05
0.0001469
0.0005448
0.001666
0.001507
0.001763
0.002108
0.001889
0.001342
0.00143
0.00285
0.008389
0.01316
0.008444
0.00498
0.004905
0.003962
0.002519
0.001013
0.0004112
0.0003258
0.0006107
0.001546
0.002704
0.002221
0.001461
0.0002261
7.962e-05
4.258e-05
5.671e-05
0.0001115
0.001255
0.006058
0.2008
0.9364
0.9967
0.9999
1
1
1
1
1
1
1
1
1
1
1
1
1
1
1
1
1
1
1
1
1
1
1
1
1
1
1
1
1
1
1
1
1
1
1
1
1
1
1
1
1
1
1
1
1
1
1
1
1
1
1
1
1
1
1
1
1
1
1
1
1
1
1
1
1
1
1
1
1
1
1
1
1
1
1
1
1
1
1
1
1
1
1
1
1
1
1
1
1
1
1
1
1
1
1
1
1
1
1
1
1
1
3.585e-05
3.69e-05
5.063e-05
1.433e-05
3.544e-06
1.958e-05
4.717e-05
0.0002773
0.0002955
0.0002199
5.367e-05
4.483e-05
3.382e-05
3.045e-05
5.105e-06
2.491e-06
8.525e-06
2.134e-05
4.414e-05
9.219e-05
0.0001752
0.0002136
0.0003825
0.000491
0.0004723
0.0006618
0.001323
0.001115
0.0009119
0.0005892
0.0004245
0.0007564
0.003301
0.008257
0.007725
0.004651
0.003406
0.003096
0.002279
0.001225
0.0003964
0.0001991
0.0002089
0.0003617
0.0006609
0.0009225
0.001132
0.0002576
0.000202
0.0001126
0.0002827
0.0008769
0.03978
0.7244
0.9861
0.9996
1
1
1
1
1
1
1
1
1
1
1
1
1
1
1
1
1
1
1
1
1
1
1
1
1
1
1
1
1
1
1
1
1
1
1
1
1
1
1
1
1
1
1
1
1
1
1
1
1
1
1
1
1
1
1
1
1
1
1
1
1
1
1
1
1
1
1
1
1
1
1
1
1
1
1
1
1
1
1
1
1
1
1
1
1
1
1
1
1
1
1
1
1
1
1
1
1
1
1
1
1
1
1
1
8.398e-05
7.23e-05
8.18e-05
1.724e-05
7.198e-06
1.964e-05
1.872e-05
0.0001067
0.0002042
0.0002381
8.383e-05
0.0001627
9.581e-05
0.0001111
5.023e-05
5.392e-05
0.0001034
0.0001188
8.418e-05
0.0001616
0.0003922
0.0004032
0.0005697
0.0004187
0.0002656
0.0004508
0.001501
0.001436
0.001066
0.0007078
0.0003409
0.0004196
0.001207
0.004176
0.007334
0.006841
0.005927
0.004795
0.003481
0.002346
0.0009469
0.0003281
0.0001628
0.0001491
0.0001312
0.0002332
0.0005619
0.0004369
0.001106
0.002695
0.02278
0.4657
0.9729
0.9988
1
1
1
1
1
1
1
1
1
1
1
1
1
1
1
1
1
1
1
1
1
1
1
1
1
1
1
1
1
0.9999
0.9991
0.9981
0.9973
0.9971
0.998
0.9981
0.9979
0.998
0.9975
0.9973
0.9983
0.9994
0.9999
1
1
1
1
1
1
1
1
1
1
1
1
1
1
1
1
1
1
1
1
1
1
1
1
1
1
1
1
1
1
1
1
1
1
1
1
1
1
1
1
1
1
1
1
1
1
1
1
1
1
1
1
1
1
1
1
1
1
1
1
1
1
1
0.0001626
0.0001198
0.0001568
2.73e-05
1.636e-05
8.05e-06
3.463e-06
1.947e-05
0.0001077
0.0002534
0.0002718
0.0005268
0.0003165
0.0004764
0.0003703
0.0005021
0.0003495
0.0002488
8.809e-05
0.0001437
0.0002495
0.0002614
0.0005246
0.000374
0.0005357
0.001039
0.003463
0.002991
0.002253
0.001231
0.0005304
0.0003662
0.0005728
0.002233
0.006329
0.01167
0.01356
0.008306
0.005317
0.003884
0.001796
0.0007138
0.0002884
0.0001266
8.379e-05
0.0001436
0.0005867
0.002088
0.01513
0.16
0.8787
0.9923
0.9999
1
1
1
1
1
1
1
1
1
1
1
1
1
1
1
1
1
1
1
1
1
1
1
1
1
1
1
0.9995
0.9961
0.9835
0.9343
0.6653
0.135
0.03172
0.01851
0.01676
0.0163
0.01549
0.01007
0.01197
0.035
0.2187
0.7247
0.9475
0.9903
0.9979
0.9995
0.9999
1
1
1
1
1
1
1
1
1
1
1
1
1
1
1
1
1
1
1
1
1
1
1
1
1
1
1
1
1
1
1
1
1
1
1
1
1
1
1
1
1
1
1
1
1
1
1
1
1
1
1
1
1
1
1
1
1
1
1
0.0001196
9.696e-05
0.0001297
2.461e-05
3.752e-05
8.498e-06
3.751e-06
1.179e-05
8.505e-05
0.0001522
0.0003274
0.0005741
0.000465
0.0008213
0.0009087
0.001596
0.001124
0.0005751
0.0002823
0.0001801
0.0002364
0.0002298
0.000417
0.0003695
0.0004879
0.0006368
0.001884
0.002362
0.00308
0.002752
0.001083
0.0003349
0.0002014
0.0004115
0.001673
0.005882
0.01044
0.005986
0.00347
0.002836
0.002532
0.00169
0.0008319
0.0003054
0.0002121
0.0006299
0.004641
0.06302
0.7645
0.9789
0.9992
1
1
1
1
1
1
1
1
1
1
1
1
1
1
1
1
1
1
1
1
1
1
1
1
1
1
0.9995
0.9938
0.9423
0.7262
0.1549
0.02866
0.007059
0.001163
0.0001456
3.93e-05
3.507e-05
2.904e-05
3.391e-05
3.39e-05
2.584e-05
5.487e-05
0.0002334
0.0009856
0.003099
0.01182
0.03432
0.1526
0.6536
0.9004
0.9794
0.9977
0.9997
1
1
1
1
1
1
1
1
1
1
1
1
1
1
1
1
1
1
1
1
1
1
1
1
1
1
1
1
1
1
1
1
1
1
1
1
1
1
1
1
1
1
1
1
1
1
1
1
1
1
1
1
1
1
1
0.9997
9.462e-05
0.0001143
0.0002243
3.573e-05
6.666e-05
7.177e-06
3.615e-06
6.775e-06
0.0001322
0.0001694
0.0004262
0.0004167
0.0004618
0.0007824
0.000706
0.001018
0.001218
0.0009871
0.0006905
0.0002405
0.0001139
6.927e-05
0.0001863
0.000432
0.0007919
0.0005768
0.001092
0.001593
0.002097
0.001942
0.0009293
0.0002341
0.0001099
0.0002423
0.001064
0.004952
0.01075
0.007821
0.004116
0.003712
0.004715
0.003551
0.001938
0.0009572
0.001067
0.00402
0.07944
0.8437
0.9924
0.9997
1
1
1
1
1
1
1
1
1
1
1
1
1
1
1
1
1
1
1
1
1
1
1
1
0.9998
0.9964
0.9623
0.7717
0.1185
0.01225
0.001473
0.0002764
7.271e-05
2.276e-05
4.974e-06
1.256e-06
2.955e-07
3.808e-07
5.803e-07
6.967e-07
8.506e-07
9.538e-07
3.644e-06
2.159e-05
5.924e-05
9.103e-05
0.0001469
0.0002139
0.0004926
0.002398
0.009252
0.0367
0.2193
0.805
0.9618
0.996
0.9997
1
1
1
1
1
1
1
1
1
1
1
1
1
1
1
1
1
1
1
1
1
1
1
1
1
1
1
1
1
1
1
1
1
1
1
1
1
1
1
1
1
1
1
1
1
1
1
0.9999
0.9993
0.9969
0.9851
0.9526
0.8975
0.0001163
0.000173
0.0004887
6.38e-05
8.385e-05
7.303e-06
6.116e-06
1.385e-05
0.0001356
0.0001664
0.0004268
0.0004664
0.0008724
0.001137
0.0004894
0.0005417
0.001115
0.002141
0.001436
0.0002388
3.155e-05
1.474e-05
5.988e-05
0.0003094
0.001052
0.000858
0.0009094
0.001461
0.001953
0.001488
0.000795
0.0002121
0.0001034
0.0002543
0.0008394
0.003662
0.006508
0.004525
0.002689
0.003099
0.00557
0.005862
0.004813
0.003891
0.009309
0.1942
0.9351
0.9981
1
1
1
1
1
1
1
1
1
1
1
1
1
1
1
1
1
1
1
1
1
1
1
1
0.9997
0.9941
0.9031
0.182
0.01294
0.002356
0.0003219
8.076e-05
2.456e-05
9.549e-06
2.497e-06
8.009e-07
1.55e-07
1.388e-07
8.967e-08
2.302e-07
3.893e-07
7.743e-07
9.432e-07
9.858e-07
2.098e-06
6.736e-06
8.701e-06
7.022e-06
5.457e-06
5.166e-06
7.931e-06
2.531e-05
6.756e-05
0.0001382
0.0007796
0.007381
0.02906
0.2774
0.8565
0.9707
0.9953
0.9996
1
1
1
1
1
1
1
1
1
1
1
1
1
1
1
1
1
1
1
1
1
1
1
1
1
1
1
1
1
1
1
1
1
1
1
1
1
1
1
1
0.9999
0.9992
0.9947
0.9611
0.7545
0.199
0.05932
0.02234
0.01289
0.003764
6.829e-05
0.000107
0.0005095
8.194e-05
9.391e-05
1.149e-05
9.577e-06
2.484e-05
0.0002654
0.0002504
0.0003273
0.0004251
0.001386
0.001926
0.0004081
0.0001997
0.0002235
0.0007145
0.0007851
0.0002494
2.019e-05
9.844e-06
2.722e-05
0.0002438
0.00108
0.001121
0.001025
0.001468
0.001266
0.0007487
0.0004072
0.0002244
0.0001929
0.0007894
0.001953
0.004061
0.003309
0.001707
0.0005934
0.0004841
0.0008573
0.001781
0.005701
0.02868
0.4765
0.964
0.9989
1
1
1
1
1
1
1
1
1
1
1
1
1
1
1
1
1
1
1
1
1
1
1
0.9994
0.9907
0.8116
0.08929
0.005938
0.0007099
0.0001892
7.556e-05
1.957e-05
1.192e-05
7.265e-06
5.415e-06
1.754e-06
1.333e-06
6.062e-07
8.136e-07
7.108e-07
2.134e-06
3.72e-06
7.859e-06
8.242e-06
6.658e-06
9.881e-06
1.148e-05
8.312e-06
5.671e-06
3.805e-06
2.233e-06
1.298e-06
1.599e-06
1.611e-06
1.72e-06
7.16e-06
3.79e-05
0.000118
0.0006691
0.009055
0.06124
0.6033
0.9832
0.9997
1
1
1
1
1
1
1
1
1
1
1
1
1
1
1
1
1
1
1
1
1
1
1
1
1
1
1
1
1
1
1
1
1
1
1
0.9998
0.9988
0.9941
0.9651
0.8363
0.2001
0.03418
0.005911
0.001534
0.000345
0.0001014
3.454e-05
1.476e-05
1.104e-06
2.348e-05
3.769e-05
0.0003138
7.937e-05
9.268e-05
3.449e-05
2.911e-05
6.695e-05
0.0008972
0.0004952
0.0002745