/*--------------------------------*- C++ -*----------------------------------*\
| =========                 |                                                 |
| \\      /  F ield         | OpenFOAM: The Open Source CFD Toolbox           |
|  \\    /   O peration     | Version:  5.x                                   |
|   \\  /    A nd           | Web:      www.OpenFOAM.org                      |
|    \\/     M anipulation  |                                                 |
\*---------------------------------------------------------------------------*/
FoamFile
{
    version     2.0;
    format      ascii;
    class       volScalarField;
    location    "70";
    object      gamma;
}
// * * * * * * * * * * * * * * * * * * * * * * * * * * * * * * * * * * * * * //

dimensions      [0 0 0 0 0 0 0];

internalField   nonuniform List<scalar> 
86400
(
0.0008661
0.0009056
0.00103
0.001256
0.001683
0.002245
0.002908
0.003901
0.005908
0.009168
0.01485
0.02316
0.03599
0.04894
0.06372
0.07217
0.07556
0.06736
0.05691
0.04745
0.03991
0.03415
0.03135
0.02963
0.02967
0.03382
0.03534
0.03632
0.03514
0.03438
0.03342
0.03428
0.03522
0.0361
0.03714
0.03877
0.03627
0.03183
0.02562
0.02223
0.0201
0.02023
0.01946
0.01802
0.01791
0.01891
0.02133
0.02289
0.02375
0.02263
0.02221
0.02222
0.0224
0.02262
0.02247
0.02315
0.02397
0.02421
0.02385
0.02329
0.02161
0.02121
0.02023
0.02037
0.02219
0.02512
0.02673
0.02761
0.02543
0.02409
0.02507
0.02722
0.02685
0.02413
0.02229
0.02083
0.01968
0.02131
0.02421
0.02606
0.02833
0.02904
0.02855
0.02963
0.03247
0.03354
0.03448
0.03467
0.03551
0.03606
0.03505
0.03801
0.04312
0.05292
0.0603
0.06513
0.06202
0.06078
0.06052
0.06098
0.06197
0.05799
0.05239
0.04468
0.03831
0.03837
0.04556
0.05741
0.06421
0.06542
0.05805
0.05243
0.05081
0.0511
0.05125
0.05126
0.05125
0.05123
0.05162
0.05218
0.05275
0.05315
0.05328
0.05299
0.05295
0.05319
0.05304
0.05271
0.05221
0.05149
0.05046
0.05227
0.05488
0.05818
0.06132
0.06431
0.06617
0.06772
0.05644
0.04223
0.03374
0.0309
0.03376
0.038
0.03949
0.03598
0.03602
0.03696
0.03822
0.03844
0.03684
0.037
0.04115
0.03938
0.03561
0.03388
0.03872
0.06955
0.8392
0.9897
0.0009497
0.0009288
0.00102
0.001203
0.0017
0.002532
0.003727
0.005709
0.009455
0.01531
0.02576
0.03872
0.05406
0.06661
0.08128
0.09193
0.1022
0.09909
0.09083
0.08024
0.07095
0.06448
0.06054
0.05708
0.05678
0.05868
0.06032
0.06113
0.06104
0.05977
0.05745
0.05684
0.05634
0.05602
0.0563
0.05794
0.05541
0.05065
0.04431
0.03989
0.03619
0.03494
0.03336
0.03097
0.0299
0.03055
0.03178
0.03282
0.03347
0.03264
0.03273
0.03346
0.03451
0.03512
0.03309
0.03101
0.02898
0.02731
0.0259
0.02552
0.024
0.02422
0.0239
0.02491
0.02771
0.03332
0.03543
0.03676
0.03421
0.03304
0.03403
0.03595
0.03383
0.03048
0.0285
0.02936
0.03272
0.03883
0.04415
0.04538
0.04776
0.04959
0.05186
0.0556
0.06186
0.0651
0.0679
0.06832
0.0699
0.07128
0.07055
0.07489
0.08121
0.08897
0.09534
0.09889
0.09484
0.09308
0.09259
0.09268
0.09468
0.09286
0.08994
0.0837
0.07493
0.07314
0.08143
0.09273
0.1023
0.1049
0.09536
0.08715
0.08424
0.08461
0.08487
0.08498
0.08516
0.08532
0.08642
0.08789
0.08949
0.09073
0.09146
0.09122
0.09132
0.09182
0.09132
0.09042
0.08917
0.0878
0.08619
0.08924
0.0936
0.1006
0.1059
0.1081
0.1068
0.1042
0.0893
0.07172
0.06492
0.0613
0.06298
0.06896
0.07104
0.06743
0.06841
0.07122
0.07455
0.07381
0.07
0.06975
0.07676
0.08215
0.08937
0.1072
0.1519
0.3254
0.8017
0.9558
0.001157
0.001093
0.001169
0.001394
0.002137
0.003552
0.005827
0.01003
0.01737
0.02868
0.04636
0.06618
0.09098
0.1139
0.136
0.1496
0.1624
0.1561
0.1498
0.1371
0.1223
0.111
0.1068
0.1042
0.1077
0.1162
0.1217
0.124
0.1256
0.1234
0.119
0.1166
0.1116
0.1058
0.1006
0.09827
0.09257
0.08527
0.07606
0.06934
0.06316
0.05969
0.05501
0.05135
0.04942
0.05037
0.0517
0.05278
0.05343
0.05325
0.05057
0.04726
0.04439
0.04207
0.03802
0.03605
0.03325
0.03024
0.02827
0.0277
0.02684
0.02829
0.02995
0.0342
0.0391
0.04469
0.04672
0.04828
0.04504
0.04399
0.04412
0.04442
0.04188
0.04129
0.04413
0.05274
0.06423
0.07687
0.08551
0.08794
0.09063
0.09261
0.09685
0.1048
0.1182
0.1254
0.132
0.1342
0.134
0.1312
0.1244
0.122
0.1227
0.1312
0.1407
0.1491
0.1514
0.1537
0.1535
0.1535
0.1572
0.1587
0.1606
0.1565
0.1474
0.1438
0.1532
0.1668
0.1803
0.1829
0.1712
0.1598
0.1549
0.1553
0.1558
0.1563
0.1541
0.1502
0.1474
0.1461
0.1473
0.1502
0.1521
0.1523
0.153
0.1542
0.1537
0.1523
0.1497
0.1478
0.1458
0.1503
0.1562
0.1636
0.1707
0.1723
0.1688
0.1635
0.1486
0.1315
0.1255
0.1224
0.1256
0.133
0.1357
0.1301
0.1287
0.131
0.1367
0.1376
0.1386
0.1453
0.1746
0.2137
0.2869
0.4352
0.5929
0.7545
0.8873
0.9495
0.001563
0.001491
0.001638
0.002107
0.003609
0.006683
0.01189
0.02163
0.03759
0.06132
0.08915
0.103
0.1239
0.1395
0.1599
0.1806
0.2073
0.1752
0.1492
0.1218
0.09991
0.08904
0.09682
0.1093
0.1301
0.1588
0.1859
0.2035
0.2204
0.2266
0.2231
0.2213
0.2101
0.1986
0.1864
0.1776
0.1666
0.157
0.1446
0.1362
0.1275
0.1221
0.1173
0.1143
0.1051
0.09703
0.08724
0.0781
0.07188
0.07135
0.06505
0.0591
0.05574
0.05333
0.0481
0.04552
0.04062
0.03636
0.03439
0.03426
0.03391
0.03689
0.04147
0.04833
0.0565
0.06458
0.06663
0.06859
0.06647
0.06948
0.07383
0.07571
0.0765
0.08237
0.09009
0.1137
0.1425
0.1646
0.1723
0.1776
0.1794
0.184
0.1988
0.2186
0.241
0.2583
0.2742
0.2814
0.2846
0.2858
0.281
0.2736
0.2647
0.2722
0.2831
0.2995
0.3157
0.3287
0.3286
0.3282
0.3326
0.34
0.3591
0.3673
0.3617
0.3452
0.3395
0.3435
0.3501
0.3515
0.3401
0.3259
0.3183
0.3194
0.3211
0.3234
0.3167
0.3054
0.2953
0.2893
0.2885
0.2954
0.3006
0.3029
0.3058
0.3096
0.3096
0.3079
0.3049
0.3023
0.3006
0.3091
0.3201
0.3337
0.3373
0.3219
0.2971
0.2705
0.2566
0.2557
0.262
0.267
0.2739
0.28
0.2883
0.2886
0.2903
0.3016
0.327
0.3495
0.3899
0.4392
0.5168
0.6028
0.7083
0.8075
0.8807
0.9341
0.9681
0.9837
0.002458
0.002604
0.003127
0.004514
0.008342
0.01596
0.02731
0.04831
0.07695
0.1089
0.1305
0.1192
0.1213
0.1349
0.1596
0.1766
0.2028
0.1479
0.1143
0.09372
0.08022
0.07243
0.08356
0.09578
0.1252
0.1839
0.2724
0.3549
0.4158
0.4131
0.3618
0.314
0.2727
0.2498
0.2439
0.2355
0.2148
0.2116
0.2146
0.2225
0.2047
0.1738
0.1407
0.1282
0.123
0.1285
0.121
0.1129
0.1069
0.1122
0.107
0.1015
0.0928
0.09036
0.08424
0.0817
0.07505
0.06703
0.06273
0.06088
0.0598
0.06399
0.07414
0.0859
0.09572
0.09936
0.1005
0.09876
0.09401
0.09565
0.1007
0.1029
0.1175
0.1458
0.1754
0.211
0.249
0.264
0.2699
0.292
0.2991
0.3055
0.3257
0.3562
0.3916
0.423
0.4453
0.4545
0.4623
0.4677
0.4619
0.4594
0.4556
0.4711
0.492
0.522
0.5428
0.557
0.5579
0.5535
0.5465
0.5393
0.5406
0.541
0.5377
0.5318
0.5266
0.5233
0.5248
0.528
0.5231
0.518
0.5153
0.5168
0.5113
0.502
0.4809
0.4558
0.4312
0.4228
0.421
0.4297
0.4368
0.4417
0.447
0.4528
0.4558
0.4573
0.4581
0.4596
0.4621
0.4672
0.4714
0.4765
0.4682
0.446
0.4193
0.3978
0.3899
0.4041
0.4233
0.4379
0.451
0.4656
0.4851
0.4952
0.5065
0.5229
0.5586
0.5968
0.6502
0.7032
0.7579
0.8161
0.8779
0.9254
0.9572
0.9759
0.9866
0.992
0.003769
0.004638
0.006342
0.01062
0.02074
0.03678
0.05594
0.08494
0.1154
0.1365
0.1451
0.1194
0.1027
0.1066
0.129
0.1438
0.161
0.1165
0.0878
0.07669
0.07748
0.07665
0.09472
0.08902
0.09417
0.1177
0.1688
0.2364
0.3344
0.3337
0.2793
0.2351
0.2089
0.2043
0.2277
0.2346
0.2071
0.1959
0.1978
0.1767
0.134
0.1056
0.08942
0.107
0.1697
0.2563
0.2576
0.2328
0.1946
0.185
0.1786
0.1735
0.1612
0.168
0.18
0.1977
0.2074
0.1901
0.159
0.1295
0.1062
0.09262
0.08617
0.09241
0.1034
0.1129
0.1339
0.1471
0.1481
0.1541
0.1667
0.1738
0.209
0.2648
0.3062
0.3471
0.3824
0.4011
0.4213
0.4631
0.4867
0.5047
0.5234
0.5459
0.5663
0.5843
0.5977
0.6046
0.6119
0.6203
0.6281
0.6299
0.6301
0.6396
0.6526
0.6693
0.6824
0.6913
0.6923
0.6877
0.6782
0.6664
0.6571
0.6491
0.6414
0.632
0.6181
0.6084
0.6041
0.6032
0.5987
0.5971
0.596
0.5969
0.5879
0.5745
0.5515
0.5281
0.5082
0.5028
0.5012
0.5079
0.5142
0.5207
0.5274
0.5343
0.541
0.5475
0.5539
0.5607
0.5672
0.574
0.581
0.5893
0.5863
0.5747
0.556
0.5457
0.5453
0.5609
0.5778
0.5919
0.6066
0.6227
0.6428
0.6584
0.6764
0.6993
0.7312
0.7666
0.8065
0.8413
0.8749
0.9087
0.9409
0.9644
0.9791
0.9872
0.9917
0.9944
0.005814
0.00798
0.01196
0.02098
0.03926
0.06277
0.08736
0.1167
0.1438
0.1504
0.1479
0.116
0.08699
0.09
0.09699
0.1128
0.1298
0.1112
0.09099
0.09429
0.1151
0.1153
0.1381
0.1087
0.09686
0.1011
0.1285
0.1642
0.2449
0.2535
0.2145
0.1744
0.1683
0.1908
0.2432
0.2683
0.2352
0.2203
0.2433
0.2209
0.1653
0.1353
0.1372
0.2482
0.5788
0.7371
0.754
0.7175
0.6376
0.5902
0.5826
0.5978
0.6056
0.6463
0.6909
0.7257
0.7427
0.7184
0.6407
0.5022
0.3154
0.1979
0.1416
0.1387
0.1551
0.1757
0.2219
0.2557
0.2666
0.267
0.2965
0.3137
0.4041
0.4836
0.5184
0.5322
0.5408
0.5475
0.5627
0.5942
0.6161
0.6324
0.649
0.6676
0.6874
0.7024
0.7128
0.7171
0.7239
0.7309
0.7349
0.7361
0.736
0.7389
0.7449
0.7523
0.7566
0.7582
0.7566
0.7515
0.7423
0.7289
0.7174
0.7065
0.6975
0.6882
0.6764
0.6658
0.6601
0.6586
0.6567
0.6566
0.6562
0.6568
0.6478
0.6345
0.6119
0.5945
0.5825
0.5837
0.5869
0.5942
0.6012
0.6082
0.6153
0.6226
0.6298
0.6369
0.6441
0.6515
0.6587
0.6666
0.6749
0.6844
0.6865
0.6866
0.6865
0.6889
0.6959
0.7094
0.722
0.7342
0.7473
0.7613
0.7776
0.7925
0.8082
0.8257
0.8457
0.8663
0.8873
0.9084
0.9302
0.9509
0.9684
0.9805
0.9871
0.9909
0.9932
0.9947
0.01037
0.01454
0.02172
0.03654
0.06279
0.09045
0.1184
0.145
0.1621
0.1561
0.1504
0.1179
0.08346
0.0844
0.09253
0.1173
0.1488
0.1484
0.1276
0.1389
0.1561
0.1587
0.1929
0.1643
0.1408
0.1177
0.1349
0.1505
0.2038
0.2149
0.1945
0.1857
0.1951
0.246
0.3362
0.3915
0.3656
0.3793
0.4553
0.4071
0.3369
0.3169
0.4886
0.7313
0.9014
0.9484
0.9522
0.9399
0.9136
0.8965
0.9026
0.9193
0.9322
0.9447
0.9551
0.9589
0.9559
0.9415
0.9022
0.822
0.677
0.4727
0.2635
0.2278
0.2522
0.3072
0.3957
0.4524
0.4697
0.4861
0.5209
0.5434
0.5951
0.6361
0.6532
0.6568
0.6611
0.6747
0.691
0.7145
0.7296
0.7403
0.7507
0.7625
0.7742
0.7835
0.7896
0.7902
0.7946
0.8004
0.8054
0.8088
0.8107
0.8103
0.8108
0.8111
0.8075
0.8029
0.7987
0.7924
0.785
0.7771
0.7683
0.7577
0.747
0.7352
0.7239
0.7156
0.7124
0.7119
0.7111
0.7111
0.7111
0.7119
0.7057
0.6972
0.6883
0.6832
0.6827
0.6901
0.6969
0.7033
0.7096
0.7159
0.7223
0.7288
0.7353
0.7415
0.7476
0.7536
0.7597
0.7665
0.774
0.7821
0.7872
0.7911
0.795
0.7995
0.806
0.8155
0.8247
0.8337
0.8428
0.8522
0.8629
0.875
0.8878
0.9006
0.9125
0.9228
0.934
0.9472
0.961
0.9732
0.9823
0.9876
0.9906
0.9926
0.9938
0.9945
0.01931
0.02625
0.03562
0.05481
0.08558
0.1165
0.1474
0.1642
0.1615
0.1426
0.1294
0.1159
0.1011
0.1167
0.1414
0.1661
0.1691
0.1507
0.1325
0.1506
0.1933
0.2189
0.2706
0.2488
0.2249
0.2077
0.1964
0.1955
0.2289
0.2441
0.2378
0.2654
0.2987
0.4
0.4909
0.5226
0.4926
0.5318
0.6078
0.5875
0.599
0.6701
0.8155
0.9253
0.9775
0.989
0.9899
0.9872
0.9823
0.9797
0.9835
0.9884
0.9915
0.9936
0.9944
0.9938
0.9915
0.9849
0.9664
0.9209
0.8269
0.6798
0.5091
0.4481
0.4731
0.5188
0.5775
0.619
0.6335
0.6444
0.6584
0.667
0.6911
0.7161
0.7377
0.7539
0.7674
0.7828
0.7953
0.8066
0.8152
0.8215
0.8267
0.8327
0.8383
0.8423
0.8456
0.8463
0.8472
0.8474
0.8469
0.8456
0.8459
0.8466
0.8484
0.848
0.8427
0.8343
0.8259
0.8183
0.814
0.8114
0.8069
0.7998
0.7931
0.7854
0.779
0.7757
0.7751
0.7746
0.7744
0.7748
0.7754
0.7766
0.775
0.7723
0.7701
0.77
0.7723
0.7779
0.7831
0.788
0.7928
0.7976
0.8025
0.8076
0.8133
0.819
0.8246
0.8299
0.835
0.8404
0.8463
0.8525
0.859
0.8652
0.871
0.8764
0.882
0.8879
0.8943
0.9004
0.9062
0.9118
0.918
0.9249
0.9321
0.9389
0.9449
0.9497
0.9577
0.9676
0.9772
0.9846
0.9891
0.9913
0.9927
0.9939
0.9944
0.9942
0.03284
0.04049
0.05204
0.0774
0.1129
0.1484
0.1701
0.164
0.1362
0.1187
0.1073
0.114
0.1257
0.1677
0.2108
0.2216
0.2115
0.173
0.1398
0.138
0.1567
0.1653
0.1909
0.2051
0.2
0.2062
0.2003
0.1925
0.2019
0.2383
0.2838
0.3693
0.4452
0.5367
0.5758
0.5888
0.5805
0.6131
0.6525
0.6456
0.7032
0.8041
0.9168
0.9742
0.9927
0.9962
0.9965
0.9956
0.9944
0.9944
0.9963
0.9978
0.9986
0.9989
0.9988
0.9982
0.9965
0.9914
0.9759
0.9378
0.8624
0.7511
0.6376
0.5995
0.618
0.6465
0.6766
0.7035
0.7188
0.7368
0.753
0.7655
0.7782
0.793
0.8059
0.8172
0.8257
0.8343
0.8412
0.8476
0.8532
0.8577
0.8604
0.8629
0.8651
0.8671
0.8692
0.8705
0.8717
0.872
0.8725
0.873
0.8751
0.8756
0.876
0.8727
0.865
0.8553
0.8467
0.8404
0.8391
0.8398
0.8386
0.835
0.8301
0.8252
0.8213
0.8196
0.8196
0.8198
0.8206
0.8221
0.824
0.8262
0.8288
0.8316
0.8352
0.8392
0.8432
0.8468
0.8503
0.8538
0.8573
0.861
0.8646
0.8682
0.8721
0.8761
0.88
0.8838
0.8876
0.8917
0.8962
0.9007
0.9052
0.9091
0.9124
0.9158
0.9197
0.9239
0.9286
0.9329
0.9368
0.9403
0.9442
0.9484
0.9528
0.9569
0.9603
0.9628
0.9698
0.9781
0.9854
0.9898
0.9923
0.9931
0.9939
0.9946
0.9944
0.9931
0.04851
0.05703
0.07083
0.1027
0.1405
0.1588
0.1455
0.1153
0.08805
0.08433
0.09177
0.1171
0.1592
0.2169
0.208
0.2011
0.1726
0.1384
0.1247
0.1253
0.1286
0.1119
0.109
0.1244
0.1348
0.1515
0.1811
0.1932
0.1964
0.2308
0.2764
0.3366
0.3907
0.4684
0.5079
0.5027
0.5027
0.5606
0.5922
0.632
0.7182
0.8392
0.9316
0.9787
0.9932
0.9964
0.997
0.9967
0.9966
0.9974
0.9986
0.9993
0.9995
0.9995
0.9993
0.9983
0.9956
0.9876
0.9667
0.9207
0.8553
0.7824
0.7312
0.7163
0.7249
0.7362
0.7465
0.7564
0.7653
0.7768
0.7888
0.8017
0.8139
0.8254
0.8347
0.8424
0.8482
0.8533
0.8578
0.8627
0.8676
0.8724
0.8763
0.8795
0.8822
0.8849
0.8877
0.8899
0.8918
0.8933
0.8952
0.8977
0.8997
0.8985
0.8958
0.8895
0.8805
0.871
0.8646
0.8596
0.8587
0.8593
0.8592
0.8582
0.8569
0.8559
0.8551
0.855
0.8552
0.8556
0.8567
0.8585
0.8611
0.8639
0.8666
0.8691
0.8718
0.8746
0.8775
0.8804
0.8834
0.8866
0.89
0.8938
0.8972
0.9003
0.9035
0.9066
0.9096
0.9129
0.9161
0.9194
0.9229
0.9264
0.9297
0.9326
0.935
0.9373
0.9401
0.9432
0.9467
0.9498
0.9527
0.9552
0.958
0.9608
0.9637
0.9663
0.9683
0.9696
0.9753
0.9825
0.9885
0.9919
0.9937
0.9939
0.9942
0.9942
0.993
0.9901
0.06058
0.07057
0.09112
0.1292
0.1689
0.1734
0.1282
0.09039
0.06803
0.07643
0.09781
0.165
0.2219
0.2246
0.194
0.1897
0.1638
0.1622
0.1375
0.1075
0.09104
0.08515
0.0947
0.1045
0.1098
0.1142
0.1328
0.1427
0.1535
0.1798
0.2149
0.2612
0.2999
0.3456
0.414
0.389
0.3627
0.4248
0.4331
0.4967
0.598
0.7358
0.8594
0.9475
0.9805
0.9901
0.9932
0.9943
0.9956
0.9972
0.9986
0.9992
0.9993
0.9991
0.9982
0.995
0.986
0.9632
0.9165
0.847
0.7805
0.7309
0.7147
0.7193
0.7341
0.7489
0.7607
0.7702
0.7795
0.7908
0.8024
0.8151
0.8265
0.8357
0.8419
0.8468
0.8512
0.8562
0.8629
0.8702
0.8772
0.8834
0.8879
0.8918
0.8952
0.8985
0.9018
0.9046
0.907
0.9095
0.9123
0.9143
0.9142
0.9098
0.9033
0.8937
0.8857
0.8801
0.8771
0.8745
0.8742
0.8743
0.8741
0.8736
0.8731
0.8729
0.8728
0.8732
0.8737
0.8744
0.8758
0.878
0.8807
0.8834
0.8857
0.8877
0.89
0.8927
0.8956
0.8985
0.9016
0.9049
0.9084
0.9122
0.9155
0.9184
0.921
0.9237
0.9263
0.9292
0.932
0.9348
0.9376
0.9405
0.9433
0.9458
0.9481
0.9502
0.9525
0.9549
0.9575
0.9598
0.9619
0.9638
0.9657
0.9677
0.9697
0.9715
0.9729
0.9736
0.9777
0.9832
0.9882
0.9911
0.9927
0.9928
0.9929
0.9923
0.9898
0.984
0.06222
0.07687
0.1057
0.1472
0.1787
0.1646
0.1105
0.07702
0.0755
0.09693
0.1447
0.2216
0.2178
0.1971
0.1909
0.2031
0.213
0.2346
0.1674
0.1057
0.08046
0.07629
0.07965
0.09152
0.09728
0.09858
0.1139
0.1316
0.1532
0.1916
0.2144
0.2419
0.2742
0.3349
0.3741
0.3522
0.3146
0.3541
0.3805
0.5099
0.6232
0.7068
0.7615
0.8611
0.9285
0.9628
0.9788
0.9862
0.9907
0.9941
0.9967
0.9978
0.9976
0.9958
0.9905
0.9752
0.9428
0.8858
0.8061
0.7312
0.6911
0.6781
0.6913
0.7086
0.7261
0.7425
0.7565
0.7673
0.7777
0.7894
0.802
0.8137
0.8243
0.8314
0.8361
0.8405
0.8457
0.8533
0.8628
0.8729
0.8819
0.8891
0.8943
0.8985
0.9021
0.9055
0.909
0.9124
0.9157
0.9179
0.9197
0.9195
0.9164
0.9094
0.9003
0.8908
0.8843
0.8811
0.8803
0.8796
0.8799
0.88
0.8799
0.8799
0.8797
0.8798
0.8801
0.8807
0.8814
0.8825
0.8843
0.8867
0.8892
0.8917
0.8941
0.8965
0.8991
0.9022
0.9054
0.9086
0.912
0.9155
0.9192
0.923
0.9264
0.9293
0.9319
0.9345
0.937
0.9397
0.9423
0.9447
0.9472
0.9497
0.9521
0.9544
0.9563
0.9582
0.96
0.9619
0.9638
0.9657
0.9674
0.969
0.9705
0.972
0.9734
0.9746
0.9754
0.9758
0.9778
0.9815
0.9857
0.9892
0.9914
0.9917
0.9913
0.9887
0.9838
0.9753
0.05906
0.07832
0.115
0.1568
0.1769
0.1483
0.09985
0.08693
0.09763
0.1352
0.1755
0.2138
0.1889
0.1879
0.2195
0.2879
0.3373
0.2614
0.1534
0.08716
0.06398
0.06538
0.07108
0.08991
0.1021
0.1141
0.1254
0.1463
0.1561
0.1847
0.2052
0.2337
0.2462
0.3078
0.335
0.3346
0.2997
0.3352
0.4049
0.5425
0.6449
0.6863
0.6533
0.6942
0.7771
0.8626
0.9206
0.9546
0.9699
0.9794
0.986
0.9876
0.9842
0.9725
0.9472
0.8936
0.8131
0.732
0.6589
0.6205
0.6197
0.6364
0.6589
0.6831
0.7049
0.7244
0.7405
0.7523
0.7645
0.7772
0.79
0.8014
0.8113
0.8174
0.8222
0.8272
0.8338
0.8441
0.8562
0.8687
0.879
0.8872
0.893
0.8978
0.9019
0.905
0.908
0.9101
0.9121
0.9123
0.9122
0.9097
0.9045
0.8951
0.8865
0.8787
0.8752
0.8753
0.8765
0.8772
0.8776
0.8779
0.8782
0.8786
0.8789
0.8794
0.8799
0.8808
0.8819
0.8837
0.8861
0.8888
0.8915
0.8944
0.8973
0.9004
0.9039
0.9076
0.9112
0.915
0.9188
0.9226
0.9264
0.9302
0.9336
0.9366
0.9393
0.9418
0.9442
0.9466
0.9489
0.9511
0.9533
0.9556
0.9578
0.9599
0.9617
0.9634
0.965
0.9666
0.968
0.9694
0.9708
0.972
0.9733
0.9744
0.9754
0.9762
0.9767
0.9768
0.9771
0.9795
0.9834
0.9872
0.99
0.9908
0.9897
0.9854
0.9778
0.9664
0.05423
0.07777
0.1226
0.1535
0.155
0.124
0.09217
0.1002
0.1407
0.1612
0.1749
0.1688
0.1729
0.2176
0.2914
0.3106
0.1713
0.07281
0.03562
0.02794
0.03406
0.05158
0.06593
0.07874
0.09785
0.1223
0.1301
0.1545
0.1552
0.159
0.1593
0.1894
0.2079
0.2499
0.2711
0.2777
0.2526
0.3009
0.4135
0.5606
0.6656
0.6826
0.578
0.4742
0.4302
0.5704
0.7084
0.8229
0.8762
0.9069
0.9243
0.9254
0.9042
0.8564
0.7872
0.6941
0.6114
0.5665
0.5389
0.5408
0.5627
0.5913
0.621
0.6487
0.6726
0.6935
0.7114
0.7247
0.7404
0.7552
0.77
0.7823
0.7919
0.7967
0.8011
0.8063
0.8138
0.8255
0.8388
0.8522
0.8636
0.8734
0.8803
0.8861
0.8903
0.8929
0.8944
0.8945
0.8945
0.8925
0.8903
0.8848
0.8785
0.8708
0.8657
0.8619
0.8621
0.8638
0.8648
0.8655
0.8661
0.8668
0.8678
0.8691
0.8702
0.8715
0.8727
0.8742
0.876
0.8787
0.8823
0.886
0.8897
0.8934
0.8973
0.9014
0.906
0.9104
0.9148
0.919
0.9232
0.9272
0.931
0.9346
0.938
0.9411
0.944
0.9467
0.9493
0.9516
0.9538
0.9558
0.9578
0.9598
0.9617
0.9635
0.9651
0.9665
0.968
0.9693
0.9706
0.9717
0.9729
0.9739
0.9749
0.9758
0.9765
0.9769
0.977
0.9775
0.9781
0.9803
0.9839
0.9873
0.99
0.9911
0.9899
0.9855
0.978
0.9683
0.04892
0.07559
0.1286
0.1439
0.123
0.09894
0.08739
0.1171
0.1576
0.1551
0.1362
0.1157
0.1293
0.2376
0.2536
0.12
0.03901
0.01136
0.007319
0.01194
0.02949
0.0726
0.1006
0.1007
0.1134
0.1329
0.1519
0.1651
0.1539
0.1396
0.1422
0.1685
0.1819
0.213
0.2158
0.2227
0.224
0.2582
0.3376
0.46
0.5653
0.5846
0.4676
0.3027
0.2107
0.2098
0.2888
0.4839
0.5945
0.6575
0.6807
0.6615
0.6168
0.5519
0.5073
0.471
0.4481
0.4402
0.4442
0.4725
0.5078
0.5429
0.5751
0.6032
0.6282
0.6502
0.6697
0.6855
0.705
0.7239
0.7417
0.7553
0.7651
0.7689
0.7726
0.778
0.7855
0.7958
0.8078
0.8204
0.8322
0.8428
0.8514
0.8583
0.8628
0.8653
0.8656
0.8634
0.8609
0.8556
0.8511
0.8455
0.8412
0.8373
0.8369
0.8373
0.8397
0.8413
0.8426
0.8436
0.8449
0.8463
0.8482
0.8504
0.8525
0.8548
0.857
0.8597
0.8629
0.8675
0.873
0.8784
0.8838
0.8892
0.8948
0.9005
0.9065
0.9119
0.9169
0.9216
0.926
0.9301
0.9338
0.9373
0.9406
0.9437
0.9466
0.9495
0.9521
0.9544
0.9565
0.9585
0.9605
0.9624
0.9641
0.9657
0.9672
0.9685
0.9698
0.971
0.9721
0.9731
0.9741
0.975
0.9758
0.9764
0.9767
0.9767
0.9772
0.9791
0.9812
0.984
0.9869
0.9893
0.9907
0.9918
0.9915
0.9889
0.9837
0.9754
0.04099
0.06732
0.1192
0.1216
0.09043
0.07008
0.07451
0.1065
0.1311
0.1249
0.1006
0.088
0.1132
0.1671
0.08376
0.02132
0.005909
0.002314
0.003218
0.01344
0.05655
0.1468
0.1587
0.1194
0.1123
0.1177
0.1358
0.1497
0.1392
0.1175
0.1201
0.1348
0.1386
0.1509
0.1502
0.153
0.1664
0.1897
0.2352
0.2887
0.3694
0.4138
0.3535
0.2733
0.2174
0.1916
0.1996
0.2349
0.2591
0.2815
0.3009
0.2869
0.2753
0.2663
0.284
0.3028
0.3262
0.3508
0.3768
0.4149
0.4559
0.493
0.5244
0.5511
0.5752
0.597
0.6173
0.6376
0.6615
0.6843
0.7051
0.7202
0.7299
0.7334
0.7375
0.743
0.75
0.7578
0.766
0.7752
0.7842
0.7918
0.8
0.808
0.8141
0.8184
0.819
0.8142
0.8081
0.8013
0.7954
0.7922
0.7923
0.7935
0.7971
0.7999
0.8024
0.8044
0.8064
0.8085
0.811
0.8136
0.8167
0.8201
0.8236
0.8279
0.8326
0.8381
0.8435
0.85
0.8574
0.8647
0.872
0.8796
0.8874
0.8953
0.9033
0.9102
0.9161
0.9213
0.9261
0.9304
0.9344
0.9381
0.9416
0.9449
0.9481
0.951
0.9536
0.956
0.9581
0.9602
0.9621
0.9639
0.9656
0.967
0.9684
0.9697
0.9709
0.9719
0.973
0.9739
0.9747
0.9754
0.976
0.9762
0.976
0.9764
0.9783
0.9818
0.9851
0.9883
0.9903
0.9916
0.9925
0.9934
0.9937
0.9919
0.988
0.9792
0.03129
0.05463
0.09922
0.09952
0.06903
0.06228
0.0715
0.09952
0.0992
0.08538
0.06041
0.04668
0.0506
0.05206
0.01405
0.003498
0.001432
0.001224
0.00327
0.0198
0.09661
0.2194
0.2154
0.1618
0.1409
0.1298
0.1319
0.1331
0.1215
0.1061
0.1109
0.1225
0.1285
0.1237
0.1166
0.1172
0.129
0.1448
0.1567
0.1651
0.1849
0.2118
0.2475
0.268
0.2726
0.2505
0.2293
0.2119
0.2064
0.195
0.1864
0.171
0.1685
0.1803
0.2128
0.247
0.2837
0.3112
0.3382
0.3728
0.4106
0.4451
0.4735
0.4977
0.519
0.5416
0.5637
0.5886
0.615
0.6398
0.6609
0.6763
0.6857
0.6908
0.6956
0.7003
0.7057
0.7098
0.7135
0.7175
0.7211
0.7229
0.7275
0.7344
0.7414
0.7481
0.7502
0.7443
0.7364
0.7303
0.7275
0.7291
0.7335
0.7376
0.7413
0.7444
0.7476
0.7507
0.7539
0.7565
0.7593
0.7621
0.7657
0.7706
0.777
0.7854
0.795
0.8057
0.8153
0.8251
0.8349
0.844
0.8529
0.8624
0.872
0.8818
0.8918
0.9015
0.9104
0.9182
0.9248
0.9303
0.9344
0.9383
0.9419
0.9454
0.9487
0.9517
0.9544
0.9568
0.959
0.9611
0.963
0.9648
0.9663
0.9677
0.969
0.9702
0.9713
0.9723
0.9732
0.974
0.9746
0.975
0.9752
0.975
0.9752
0.9771
0.9807
0.9851
0.9887
0.9909
0.9921
0.9927
0.9927
0.9929
0.9931
0.9912
0.987
0.9772
0.02765
0.0489
0.08572
0.08912
0.06029
0.06311
0.08151
0.1072
0.09146
0.07083
0.04729
0.02888
0.01869
0.01198
0.002962
0.001122
0.001101
0.002303
0.008296
0.04689
0.162
0.2727
0.2476
0.2035
0.174
0.1483
0.1389
0.1313
0.1195
0.1084
0.1167
0.124
0.1302
0.1234
0.1112
0.1048
0.1149
0.1313
0.1462
0.1615
0.1766
0.1886
0.2096
0.2346
0.262
0.2649
0.2536
0.2371
0.2175
0.1985
0.1849
0.1692
0.1653
0.1821
0.2087
0.2403
0.2706
0.2909
0.316
0.3403
0.3701
0.4004
0.4261
0.4498
0.472
0.4957
0.518
0.5438
0.5673
0.5901
0.6065
0.621
0.6311
0.6373
0.6419
0.646
0.6494
0.6505
0.6502
0.6512
0.6486
0.6398
0.6349
0.6309
0.6281
0.6325
0.639
0.6383
0.64
0.6435
0.6437
0.6475
0.6523
0.6569
0.6609
0.6649
0.6685
0.6715
0.6737
0.6743
0.6747
0.6793
0.6881
0.701
0.7164
0.7331
0.7488
0.7658
0.7803
0.7939
0.806
0.8173
0.8279
0.8391
0.8503
0.8618
0.8739
0.8867
0.8984
0.9085
0.9179
0.9259
0.932
0.9374
0.9419
0.9454
0.9487
0.9518
0.9545
0.957
0.9593
0.9614
0.9633
0.9649
0.9664
0.9678
0.969
0.9701
0.9711
0.9719
0.9726
0.9732
0.9735
0.9735
0.9732
0.9734
0.9754
0.9792
0.9839
0.9883
0.9909
0.9924
0.9927
0.9925
0.9912
0.9899
0.9893
0.9867
0.9813
0.9685
0.02808
0.04773
0.08107
0.0907
0.0664
0.07938
0.1033
0.1252
0.09916
0.07326
0.04097
0.0221
0.01113
0.005836
0.001856
0.00129
0.002686
0.009697
0.03482
0.1091
0.2291
0.2639
0.2208
0.2051
0.1915
0.1706
0.1582
0.143
0.1276
0.1202
0.1284
0.1391
0.1439
0.1377
0.1241
0.1193
0.1286
0.1387
0.145
0.1508
0.1589
0.1682
0.1855
0.2102
0.2391
0.2541
0.2574
0.2569
0.2402
0.2238
0.2043
0.1942
0.1894
0.206
0.2261
0.2475
0.2674
0.2839
0.3038
0.3179
0.3405
0.3661
0.3908
0.4139
0.4368
0.4585
0.4792
0.5042
0.5223
0.5362
0.5468
0.5574
0.5656
0.5718
0.5758
0.5773
0.5777
0.5764
0.574
0.5732
0.5692
0.5527
0.5396
0.5294
0.5097
0.506
0.5124
0.514
0.5236
0.5368
0.538
0.541
0.5441
0.5447
0.5454
0.5462
0.5465
0.552
0.5602
0.5665
0.5716
0.5827
0.5971
0.6189
0.6444
0.6708
0.6937
0.7177
0.7382
0.7565
0.7721
0.7856
0.7983
0.8114
0.8243
0.8373
0.8508
0.8659
0.8802
0.8934
0.9054
0.9169
0.9264
0.9347
0.9411
0.9453
0.9483
0.9513
0.954
0.9565
0.9588
0.9609
0.9627
0.9643
0.9657
0.967
0.9681
0.9691
0.9699
0.9706
0.971
0.9711
0.971
0.9717
0.9726
0.9749
0.9786
0.983
0.9872
0.9902
0.9914
0.9918
0.9908
0.9894
0.9865
0.9834
0.9796
0.9747
0.9662
0.9508
0.03069
0.04763
0.08169
0.09494
0.08574
0.11
0.1374
0.1665
0.1287
0.08974
0.04628
0.02687
0.01454
0.007827
0.003513
0.003341
0.008901
0.03299
0.09107
0.1734
0.2328
0.2174
0.1888
0.1881
0.1799
0.1677
0.1644
0.143
0.1246
0.1158
0.1114
0.1188
0.131
0.1329
0.1235
0.1216
0.1276
0.1359
0.1423
0.1494
0.158
0.1681
0.1845
0.2064
0.2282
0.2414
0.2462
0.2525
0.2448
0.2424
0.2353
0.2327
0.2294
0.2417
0.253
0.2619
0.2716
0.2844
0.3008
0.3113
0.3298
0.35
0.3729
0.3939
0.4151
0.4318
0.4476
0.4658
0.475
0.4811
0.4858
0.4901
0.4934
0.4964
0.497
0.495
0.4919
0.4897
0.4864
0.485
0.4807
0.4643
0.4503
0.4331
0.4073
0.3954
0.3971
0.408
0.4215
0.4372
0.4356
0.4302
0.4267
0.4212
0.4176
0.4141
0.4142
0.4205
0.4325
0.4437
0.4528
0.4715
0.4925
0.527
0.564
0.5999
0.6307
0.6621
0.6891
0.713
0.7338
0.752
0.769
0.7857
0.8006
0.8143
0.8281
0.8435
0.859
0.8729
0.8871
0.9019
0.9165
0.9288
0.9381
0.9439
0.9474
0.95
0.9526
0.9551
0.9574
0.9594
0.961
0.9624
0.9636
0.9648
0.9659
0.9667
0.9673
0.9677
0.9677
0.9689
0.9705
0.9736
0.9764
0.9796
0.9828
0.9866
0.989
0.9906
0.9903
0.9891
0.9861
0.9824
0.9756
0.9693
0.962
0.9554
0.946
0.931
0.03528
0.05214
0.08886
0.1085
0.1179
0.1366
0.1465
0.1882
0.1725
0.1181
0.06391
0.04579
0.02583
0.01638
0.01022
0.01123
0.02588
0.0751
0.1377
0.1757
0.1883
0.1784
0.1849
0.1895
0.1824
0.175
0.1765
0.1628
0.1358
0.1221
0.1093
0.1137
0.1244
0.136
0.1329
0.1338
0.1377
0.1437
0.1476
0.1526
0.1596
0.1675
0.1777
0.1883
0.1957
0.2025
0.2109
0.2273
0.2386
0.2465
0.2512
0.2519
0.2506
0.2583
0.2636
0.2688
0.2781
0.2882
0.3018
0.3103
0.3253
0.3427
0.3617
0.3784
0.3982
0.4069
0.4158
0.4247
0.4295
0.4293
0.4297
0.4271
0.4227
0.4192
0.4146
0.4091
0.402
0.3959
0.3896
0.3874
0.3839
0.3732
0.366
0.3581
0.3365
0.3305
0.3285
0.3323
0.336
0.339
0.3276
0.3153
0.3124
0.3138
0.3136
0.3045
0.2986
0.2975
0.3063
0.3231
0.3416
0.3742
0.4101
0.4551
0.4985
0.5347
0.5665
0.6001
0.6323
0.6644
0.6929
0.7183
0.7415
0.7629
0.7809
0.7961
0.8095
0.8238
0.8386
0.8526
0.8675
0.884
0.9011
0.9182
0.9312
0.9395
0.9443
0.9473
0.9497
0.9521
0.9543
0.956
0.9574
0.9585
0.9596
0.9606
0.9616
0.9624
0.9647
0.9674
0.9699
0.9735
0.9763
0.9794
0.982
0.985
0.9867
0.9886
0.9893
0.9891
0.9865
0.9823
0.9745
0.9665
0.9568
0.9477
0.9361
0.9298
0.9253
0.915
0.03731
0.05354
0.09677
0.1241
0.1593
0.1356
0.1212
0.1593
0.197
0.1664
0.1149
0.08213
0.04737
0.03438
0.02567
0.02783
0.04538
0.1012
0.1551
0.1806
0.1822
0.184
0.2005
0.2063
0.2021
0.1937
0.1884
0.1717
0.1508
0.1252
0.1089
0.1071
0.114
0.1278
0.1349
0.141
0.1438
0.1503
0.1545
0.1589
0.1647
0.1736
0.1831
0.1925
0.1977
0.2047
0.2137
0.2241
0.2338
0.24
0.2475
0.2534
0.261
0.2698
0.278
0.2843
0.2929
0.3017
0.3114
0.3184
0.3293
0.341
0.3521
0.3643
0.3793
0.3818
0.3821
0.3829
0.3835
0.38
0.3792
0.3698
0.3571
0.3487
0.3418
0.3358
0.3282
0.3213
0.3127
0.3066
0.3018
0.2953
0.2946
0.294
0.2756
0.2629
0.2512
0.2446
0.242
0.2414
0.2276
0.2201
0.2228
0.2296
0.2389
0.2409
0.2402
0.242
0.2532
0.2688
0.2898
0.3225
0.3635
0.4144
0.4582
0.4916
0.5231
0.5576
0.5912
0.6267
0.6591
0.6896
0.7189
0.7462
0.7688
0.7869
0.8019
0.8143
0.8263
0.838
0.8506
0.8657
0.8832
0.9029
0.9203
0.9318
0.9388
0.9425
0.9444
0.9465
0.9485
0.9522
0.9566
0.9608
0.9643
0.9668
0.9677
0.9684
0.9711
0.973
0.9741
0.976
0.9776
0.98
0.9822
0.9842
0.9855
0.9867
0.9864
0.9844
0.9785
0.9678
0.9544
0.941
0.9305
0.9238
0.9167
0.9137
0.9118
0.9
0.03343
0.05013
0.09608
0.1365
0.2181
0.1511
0.1168
0.1306
0.185
0.1645
0.1409
0.1001
0.0646
0.05076
0.0475
0.05432
0.07145
0.1228
0.1709
0.1971
0.1932
0.2011
0.2179
0.231
0.2313
0.2175
0.2047
0.1816
0.1612
0.1408
0.1185
0.1128
0.1192
0.1265
0.1306
0.1372
0.1382
0.1422
0.1526
0.1609
0.1687
0.1769
0.1859
0.1945
0.2017
0.2113
0.2243
0.2346
0.2428
0.2483
0.2534
0.2585
0.2696
0.2789
0.2894
0.2994
0.3109
0.3204
0.3292
0.3362
0.3421
0.3456
0.3473
0.3502
0.36
0.3569
0.3536
0.3488
0.3463
0.3395
0.3379
0.3256
0.3117
0.3027
0.2968
0.2913
0.2839
0.2759
0.2678
0.2609
0.2521
0.2455
0.2396
0.2348
0.2196
0.2067
0.1915
0.1834
0.1744
0.1684
0.1523
0.1459
0.1526
0.1692
0.1856
0.1977
0.2008
0.207
0.2253
0.2482
0.2746
0.3044
0.345
0.3918
0.4308
0.4606
0.4916
0.5277
0.5625
0.5998
0.6343
0.6674
0.7
0.731
0.7569
0.7781
0.7948
0.808
0.8196
0.8308
0.8412
0.8522
0.8655
0.886
0.9093
0.9292
0.9419
0.9489
0.9513
0.9526
0.9542
0.9587
0.964
0.9691
0.9717
0.9724
0.9707
0.9691
0.9706
0.9721
0.9734
0.9743
0.9748
0.9752
0.9772
0.9784
0.9791
0.979
0.9764
0.9707
0.9585
0.9408
0.9243
0.9127
0.9066
0.9032
0.8971
0.8887
0.8804
0.8643
0.03078
0.04979
0.1034
0.1519
0.2649
0.1528
0.1032
0.09118
0.1549
0.1455
0.1362
0.09433
0.06707
0.06051
0.06302
0.07045
0.07742
0.1113
0.1507
0.1835
0.1855
0.199
0.2298
0.2633
0.2802
0.2539
0.2197
0.1802
0.1535
0.1338
0.1206
0.1097
0.1157
0.1187
0.1184
0.1203
0.121
0.1255
0.1428
0.1542
0.1612
0.1666
0.1729
0.1803
0.1912
0.2041
0.2189
0.2324
0.2443
0.2539
0.2615
0.2693
0.2794
0.2877
0.2953
0.3039
0.3151
0.3259
0.3364
0.3455
0.3508
0.3519
0.3494
0.3478
0.355
0.3502
0.3398
0.328
0.3171
0.3051
0.303
0.2924
0.277
0.2641
0.2549
0.2456
0.2379
0.2288
0.2198
0.2127
0.2026
0.197
0.1917
0.1836
0.167
0.1529
0.1364
0.1306
0.1258
0.1201
0.1072
0.1029
0.11
0.1292
0.1494
0.1677
0.1791
0.1916
0.2136
0.2387
0.262
0.2875
0.325
0.3726
0.4156
0.4501
0.485
0.5206
0.5536
0.5886
0.6204
0.6537
0.6871
0.7191
0.7464
0.7694
0.7906
0.8093
0.8258
0.8389
0.8493
0.856
0.8629
0.8794
0.9033
0.9272
0.9443
0.9544
0.9587
0.9606
0.9606
0.9631
0.9664
0.971
0.9723
0.9722
0.9692
0.9663
0.9668
0.9675
0.9668
0.9646
0.9633
0.9611
0.9618
0.9609
0.9598
0.9568
0.9505
0.936
0.9187
0.8989
0.8877
0.8835
0.8782
0.8692
0.8568
0.842
0.8261
0.8045
0.0333
0.05531
0.1215
0.1774
0.2881
0.1512
0.09958
0.08118
0.1245
0.1341
0.1395
0.1054
0.08565
0.08035
0.07576
0.08197
0.08286
0.1051
0.1375
0.1685
0.1694
0.184
0.2208
0.2741
0.3048
0.2774
0.2191
0.1676
0.1361
0.1178
0.1115
0.1167
0.122
0.1213
0.1217
0.1147
0.111
0.1137
0.1342
0.143
0.1447
0.1425
0.1437
0.149
0.1628
0.1777
0.1942
0.2111
0.2276
0.2427
0.2546
0.2645
0.2727
0.2797
0.2862
0.2935
0.3028
0.3113
0.3191
0.328
0.3367
0.3404
0.3401
0.3402
0.348
0.3404
0.3267
0.3076
0.2915
0.2767
0.272
0.2593
0.2409
0.2251
0.2138
0.2017
0.1902
0.1781
0.1691
0.1653
0.1617
0.1623
0.1605
0.1538
0.1368
0.1244
0.1098
0.1025
0.09843
0.09395
0.08459
0.08086
0.08707
0.102
0.1202
0.14
0.1554
0.1713
0.2008
0.2315
0.2584
0.2859
0.3242
0.3731
0.4175
0.4549
0.4897
0.5235
0.5546
0.5882
0.6195
0.6526
0.6869
0.7214
0.7517
0.7772
0.8019
0.8229
0.8412
0.8545