/*--------------------------------*- C++ -*----------------------------------*\
| =========                 |                                                 |
| \\      /  F ield         | OpenFOAM: The Open Source CFD Toolbox           |
|  \\    /   O peration     | Version:  5.x                                   |
|   \\  /    A nd           | Web:      www.OpenFOAM.org                      |
|    \\/     M anipulation  |                                                 |
\*---------------------------------------------------------------------------*/
FoamFile
{
    version     2.0;
    format      ascii;
    class       volSymmTensorField;
    location    "55";
    object      sigmaD;
}
// * * * * * * * * * * * * * * * * * * * * * * * * * * * * * * * * * * * * * //

dimensions      [0 2 -2 0 0 0 0];

internalField   nonuniform List<symmTensor> 
80000
(
(49667 3616.1 0 2674.3 0 12079)
(37789 1463 0 167.69 0 8759.3)
(33780 740.15 0 -70.765 0 7778.9)
(31549 490.73 0 -16.532 0 7276.8)
(29982 380.68 0 19.129 0 6923.3)
(28745 315.17 0 27.915 0 6640)
(27714 269.43 0 27.096 0 6401.9)
(26827 235.78 0 24.58 0 6196.6)
(26045 210.52 0 22.474 0 6015.5)
(25340 191.25 0 20.985 0 5852.6)
(24696 176.26 0 19.922 0 5703.6)
(24098 164.33 0 19.1 0 5565.4)
(23537 154.6 0 18.397 0 5435.8)
(23007 146.47 0 17.745 0 5313.4)
(22503 139.5 0 17.109 0 5196.9)
(22021 133.37 0 16.47 0 5085.6)
(21560 127.87 0 15.824 0 4979)
(21116 122.83 0 15.168 0 4876.5)
(20690 118.12 0 14.507 0 4778)
(20280 113.66 0 13.845 0 4683.1)
(19884 109.37 0 13.187 0 4591.8)
(19504 105.21 0 12.54 0 4503.9)
(19138 101.14 0 11.908 0 4419.3)
(18787 97.138 0 11.297 0 4338.1)
(18450 93.173 0 10.712 0 4260.1)
(18126 89.233 0 10.157 0 4185.3)
(17817 85.306 0 9.6367 0 4113.8)
(17521 81.383 0 9.1544 0 4045.5)
(17240 77.458 0 8.7136 0 3980.5)
(16973 73.526 0 8.3171 0 3918.7)
(16719 69.586 0 7.9677 0 3860.2)
(16480 65.638 0 7.6678 0 3804.9)
(16255 61.683 0 7.4194 0 3753)
(16045 57.726 0 7.2244 0 3704.3)
(15848 53.772 0 7.084 0 3658.9)
(15666 49.831 0 6.9995 0 3616.8)
(15498 45.914 0 6.9711 0 3578)
(15344 42.035 0 6.999 0 3542.4)
(15203 38.214 0 7.0823 0 3510.1)
(15077 34.471 0 7.2196 0 3480.9)
(14963 30.833 0 7.4082 0 3454.8)
(14863 27.33 0 7.6448 0 3431.7)
(14775 23.996 0 7.9246 0 3411.4)
(14698 20.868 0 8.2417 0 3393.9)
(14633 17.986 0 8.5889 0 3378.8)
(14577 15.394 0 8.9578 0 3366)
(14530 13.134 0 9.3392 0 3355.3)
(14491 11.247 0 9.7228 0 3346.2)
(14457 9.7682 0 10.098 0 3338.6)
(14428 8.7282 0 10.454 0 3331.9)
(14401 8.1453 0 10.781 0 3325.9)
(14376 8.0252 0 11.069 0 3320.1)
(14350 8.3573 0 11.311 0 3314.1)
(14321 9.1138 0 11.5 0 3307.6)
(14289 10.249 0 11.631 0 3300.2)
(14252 11.699 0 11.7 0 3291.6)
(14208 13.388 0 11.708 0 3281.5)
(14158 15.228 0 11.651 0 3269.9)
(14101 17.13 0 11.532 0 3256.6)
(14036 19.004 0 11.35 0 3241.7)
(13964 20.769 0 11.108 0 3225.1)
(13886 22.36 0 10.808 0 3207)
(13802 23.726 0 10.453 0 3187.6)
(13714 24.84 0 10.046 0 3167.1)
(13622 25.69 0 9.5927 0 3145.8)
(13527 26.284 0 9.0996 0 3123.8)
(13431 26.646 0 8.5735 0 3101.4)
(13333 26.805 0 8.0219 0 3078.8)
(13236 26.8 0 7.4527 0 3056.1)
(13138 26.669 0 6.8731 0 3033.5)
(13042 26.45 0 6.2897 0 3011.1)
(12946 26.175 0 5.7077 0 2988.9)
(12851 25.87 0 5.1314 0 2966.9)
(12758 25.557 0 4.5636 0 2945.2)
(12666 25.247 0 4.0061 0 2923.8)
(12575 24.949 0 3.4598 0 2902.7)
(12485 24.665 0 2.9249 0 2881.8)
(12396 24.392 0 2.4015 0 2861.1)
(12308 24.123 0 1.8894 0 2840.7)
(12221 23.847 0 1.3888 0 2820.5)
(12135 23.553 0 0.90036 0 2800.6)
(12050 23.224 0 0.42518 0 2780.9)
(11967 22.846 0 -0.035018 0 2761.5)
(11884 22.4 0 -0.47785 0 2742.4)
(11804 21.871 0 -0.90044 0 2723.8)
(11726 21.242 0 -1.2995 0 2705.7)
(11650 20.502 0 -1.6715 0 2688.1)
(11578 19.642 0 -2.0131 0 2671.3)
(11508 18.658 0 -2.3215 0 2655.2)
(11443 17.557 0 -2.5947 0 2640)
(11382 16.353 0 -2.8316 0 2625.9)
(11325 15.07 0 -3.0325 0 2612.8)
(11274 13.74 0 -3.1986 0 2600.9)
(11227 12.408 0 -3.332 0 2590.1)
(11185 11.12 0 -3.4363 0 2580.4)
(11148 9.9304 0 -3.5157 0 2571.9)
(11116 8.8885 0 -3.5738 0 2564.3)
(11086 8.0399 0 -3.6149 0 2557.5)
(11060 7.4198 0 -3.6431 0 2551.4)
(11035 7.0488 0 -3.661 0 2545.7)
(11011 6.9306 0 -3.6718 0 2540.2)
(10987 7.0508 0 -3.6787 0 2534.7)
(10963 7.3785 0 -3.6846 0 2529)
(10936 7.8696 0 -3.6929 0 2522.9)
(10908 8.4703 0 -3.7069 0 2516.3)
(10877 9.1201 0 -3.7273 0 2509.2)
(10843 9.7559 0 -3.7554 0 2501.5)
(10808 10.318 0 -3.7921 0 2493.2)
(10770 10.754 0 -3.8372 0 2484.5)
(10731 11.024 0 -3.8892 0 2475.5)
(10691 11.098 0 -3.9456 0 2466.3)
(10651 10.96 0 -4.0034 0 2457.1)
(10613 10.61 0 -4.059 0 2448.1)
(10576 10.061 0 -4.1086 0 2439.6)
(10541 9.3356 0 -4.1486 0 2431.5)
(10509 8.469 0 -4.1755 0 2424.2)
(10481 7.5019 0 -4.1865 0 2417.7)
(10456 6.4792 0 -4.1788 0 2412)
(10435 5.4462 0 -4.1505 0 2407.2)
(10419 4.4452 0 -4.1 0 2403.3)
(10405 3.5127 0 -4.0263 0 2400.3)
(10395 2.6776 0 -3.9291 0 2398)
(10388 1.9599 0 -3.8091 0 2396.4)
(10384 1.3705 0 -3.6677 0 2395.4)
(10381 0.91241 0 -3.5074 0 2394.8)
(10380 0.5819 0 -3.3315 0 2394.5)
(10379 0.37077 0 -3.1442 0 2394.5)
(10380 0.26806 0 -2.9499 0 2394.6)
(10380 0.26165 0 -2.7533 0 2394.7)
(10380 0.3392 0 -2.5584 0 2394.8)
(10380 0.48857 0 -2.3689 0 2394.8)
(10379 0.69768 0 -2.1875 0 2394.7)
(10377 0.95401 0 -2.0157 0 2394.3)
(10374 1.2441 0 -1.8546 0 2393.6)
(10370 1.5531 0 -1.704 0 2392.7)
(10365 1.8651 0 -1.5637 0 2391.6)
(10359 2.1631 0 -1.4329 0 2390.1)
(10351 2.4303 0 -1.3106 0 2388.4)
(10343 2.6511 0 -1.1961 0 2386.5)
(10333 2.8118 0 -1.0886 0 2384.4)
(10324 2.9022 0 -0.9872 0 2382.2)
(10314 2.9158 0 -0.89111 0 2379.9)
(10304 2.8499 0 -0.79927 0 2377.7)
(10294 2.7056 0 -0.71034 0 2375.5)
(10286 2.4863 0 -0.62262 0 2373.5)
(10278 2.1972 0 -0.53403 0 2371.7)
(10271 1.8438 0 -0.44217 0 2370.1)
(10266 1.431 0 -0.34439 0 2368.9)
(10262 0.96225 0 -0.23799 0 2368)
(10260 0.43931 0 -0.12032 0 2367.6)
(10260 -0.13757 0 0.010974 0 2367.7)
(10262 -0.76897 0 0.15784 0 2368.2)
(10267 -1.4552 0 0.32169 0 2369.3)
(10274 -2.1952 0 0.50333 0 2371)
(10284 -2.985 0 0.70288 0 2373.4)
(10297 -3.817 0 0.9198 0 2376.4)
(10313 -4.6789 0 1.1528 0 2380.2)
(10332 -5.5533 0 1.4001 0 2384.7)
(10355 -6.4183 0 1.659 0 2390)
(10380 -7.2478 0 1.9263 0 2395.9)
(10409 -8.013 0 2.1983 0 2402.6)
(10440 -8.684 0 2.4706 0 2409.8)
(10473 -9.2321 0 2.7387 0 2417.5)
(10508 -9.632 0 2.9982 0 2425.7)
(10544 -9.8648 0 3.2448 0 2434.1)
(10581 -9.9202 0 3.4748 0 2442.5)
(10617 -9.7988 0 3.6857 0 2451)
(10653 -9.5136 0 3.8758 0 2459.2)
(10686 -9.0905 0 4.0448 0 2467)
(10718 -8.5674 0 4.1938 0 2474.5)
(10748 -7.9921 0 4.3243 0 2481.4)
(10776 -7.4183 0 4.4385 0 2487.7)
(10801 -6.9006 0 4.5386 0 2493.6)
(10825 -6.4892 0 4.6265 0 2499.1)
(10847 -6.2241 0 4.7034 0 2504.2)
(10868 -6.1304 0 4.7701 0 2509.1)
(10889 -6.2157 0 4.827 0 2514.1)
(10911 -6.4691 0 4.8745 0 2519.1)
(10935 -6.8629 0 4.9134 0 2524.5)
(10959 -7.356 0 4.9451 0 2530.2)
(10986 -7.9 0 4.9717 0 2536.4)
(11015 -8.4449 0 4.9962 0 2543.1)
(11046 -8.9452 0 5.0221 0 2550.2)
(11078 -9.3655 0 5.0532 0 2557.7)
(11112 -9.684 0 5.0933 0 2565.5)
(11147 -9.8944 0 5.1463 0 2573.6)
(11183 -10.006 0 5.2156 0 2581.8)
(11218 -10.04 0 5.3039 0 2590.1)
(11254 -10.027 0 5.4128 0 2598.4)
(11290 -9.9985 0 5.5426 0 2606.7)
(11326 -9.9826 0 5.6913 0 2614.9)
(11361 -9.9951 0 5.8547 0 2623.2)
(11397 -10.034 0 6.0263 0 2631.5)
(11433 -10.078 0 6.1973 0 2639.9)
(11470 -10.083 0 6.3579 0 2648.3)
(11506 -9.9879 0 6.4985 0 2656.7)
(11542 -9.7234 0 6.611 0 2664.9)
(11576 -9.2214 0 6.69 0 2672.9)
(11608 -8.4277 0 6.7337 0 2680.3)
(11637 -7.3138 0 6.7437 0 2686.9)
(11661 -5.8851 0 6.7239 0 2692.5)
(11679 -4.1838 0 6.6795 0 2696.6)
(11690 -2.2875 0 6.6152 0 2699.3)
(11694 -0.30054 0 6.5338 0 2700.2)
(11691 1.6572 0 6.4364 0 2699.4)
(11681 3.4635 0 6.3223 0 2697)
(11664 5.0057 0 6.1905 0 2693.1)
(11642 6.1905 0 6.0412 0 2688.1)
(11617 6.9492 0 5.8774 0 2682.2)
(11589 7.2385 0 5.7057 0 2675.8)
(11562 7.039 0 5.5368 0 2669.4)
(11536 6.3512 0 5.3843 0 2663.4)
(11514 5.1903 0 5.2643 0 2658.2)
(11497 3.5831 0 5.1937 0 2654.2)
(11486 1.5641 0 5.1891 0 2651.9)
(11484 -0.82533 0 5.2654 0 2651.4)
(11492 -3.5379 0 5.4357 0 2653.2)
(11510 -6.52 0 5.7109 0 2657.6)
(11540 -9.7121 0 6.0993 0 2664.6)
(11583 -13.048 0 6.6074 0 2674.5)
(11638 -16.456 0 7.2394 0 2687.3)
(11706 -19.859 0 7.9972 0 2703.2)
(11787 -23.173 0 8.88 0 2722)
(11879 -26.311 0 9.8837 0 2743.7)
(11984 -29.18 0 11.001 0 2768)
(12099 -31.681 0 12.219 0 2794.8)
(12222 -33.714 0 13.525 0 2823.6)
(12352 -35.174 0 14.899 0 2853.9)
(12487 -35.96 0 16.322 0 2885.3)
(12623 -35.978 0 17.774 0 2917.2)
(12759 -35.151 0 19.234 0 2948.8)
(12890 -33.421 0 20.681 0 2979.3)
(13013 -30.756 0 22.096 0 3008.1)
(13125 -27.158 0 23.462 0 3034.2)
(13222 -22.657 0 24.76 0 3056.9)
(13301 -17.317 0 25.974 0 3075.4)
(13359 -11.224 0 27.085 0 3089.1)
(13394 -4.4838 0 28.077 0 3097.3)
(13403 2.7878 0 28.933 0 3099.6)
(13384 10.474 0 29.638 0 3095.5)
(13337 18.464 0 30.177 0 3084.7)
(13260 26.661 0 30.538 0 3067)
(13152 34.985 0 30.71 0 3042.3)
(13015 43.379 0 30.682 0 3010.4)
(12846 51.807 0 30.446 0 2971.5)
(12646 60.256 0 29.995 0 2925.3)
(12416 68.737 0 29.319 0 2872)
(12155 77.278 0 28.408 0 2811.5)
(11862 85.93 0 27.249 0 2743.7)
(11537 94.759 0 25.821 0 2668.4)
(11180 103.85 0 24.095 0 2585.5)
(10788 113.34 0 22.024 0 2494.6)
(10360 123.36 0 19.534 0 2395.4)
(9894.4 134.12 0 16.509 0 2287.1)
(9385.9 145.91 0 12.758 0 2168.9)
(8830.1 159.12 0 7.9526 0 2039.5)
(8219.3 174.27 0 1.5748 0 1897.1)
(7543.5 192.05 0 -7.071 0 1739.2)
(6787.5 213.33 0 -18.483 0 1562.1)
(5929.4 239.42 0 -31.92 0 1361)
(4938.3 274.8 0 -44.241 0 1129.4)
(3792 334.98 0 -51.12 0 863.28)
(2459.9 410.27 0 -50.733 0 555.96)
(179.31 29.779 0 3.4821 0 42.183)
(0.0050442 0.0004298 0 0.00016308 0 0.0012017)
(0.00011251 5.1882e-06 0 2.5696e-06 0 2.6557e-05)
(0.00010435 2.5459e-06 0 2.188e-06 0 2.4585e-05)
(8.6382e-05 1.8267e-07 0 2.8934e-07 0 2.0001e-05)
(8.5959e-05 1.853e-06 0 1.0583e-06 0 2.0081e-05)
(8.3043e-05 -1.1303e-07 0 -1.3849e-07 0 1.9132e-05)
(8.5118e-05 -3.4238e-07 0 2.899e-07 0 1.9709e-05)
(8.6527e-05 -8.0392e-08 0 2.2422e-07 0 2.002e-05)
(8.7332e-05 -4.8676e-09 0 -4.0375e-08 0 2.0144e-05)
(8.7319e-05 1.0989e-07 0 -1.0119e-07 0 2.0127e-05)
(8.6605e-05 2.6599e-07 0 -1.1661e-07 0 1.9959e-05)
(8.5362e-05 3.4638e-07 0 -4.0202e-08 0 1.969e-05)
(8.402e-05 3.4373e-07 0 -1.1683e-08 0 1.9386e-05)
(8.2835e-05 3.1319e-07 0 -4.0982e-08 0 1.9106e-05)
(8.1799e-05 2.8511e-07 0 -6.5422e-08 0 1.8862e-05)
(8.0745e-05 2.6029e-07 0 -6.2891e-08 0 1.8619e-05)
(7.975e-05 2.2135e-07 0 -5.1498e-08 0 1.8392e-05)
(7.9015e-05 1.5869e-07 0 -7.1052e-08 0 1.8218e-05)
(7.9375e-05 1.5084e-07 0 -1.4384e-07 0 1.8284e-05)
(7.998e-05 2.9282e-07 0 -1.7277e-07 0 1.8417e-05)
(7.6565e-05 3.8023e-07 0 -9.9674e-08 0 1.7646e-05)
(7.5425e-05 3.2019e-07 0 -5.0042e-08 0 1.7394e-05)
(7.4643e-05 2.4524e-07 0 -5.7177e-08 0 1.7212e-05)
(7.3934e-05 1.9645e-07 0 -6.7323e-08 0 1.7046e-05)
(7.3287e-05 1.6514e-07 0 -7.1443e-08 0 1.6896e-05)
(7.2748e-05 1.4087e-07 0 -7.3129e-08 0 1.6771e-05)
(7.2287e-05 1.1974e-07 0 -7.4003e-08 0 1.6665e-05)
(7.1901e-05 1.0043e-07 0 -7.4218e-08 0 1.6575e-05)
(7.1584e-05 8.2925e-08 0 -7.4049e-08 0 1.6502e-05)
(7.133e-05 6.7618e-08 0 -7.3541e-08 0 1.6444e-05)
(7.1127e-05 5.4781e-08 0 -7.264e-08 0 1.6397e-05)
(7.0968e-05 4.4476e-08 0 -7.1323e-08 0 1.6361e-05)
(7.0842e-05 3.6571e-08 0 -6.9605e-08 0 1.6332e-05)
(7.074e-05 3.0781e-08 0 -6.7534e-08 0 1.6309e-05)
(7.0656e-05 2.6763e-08 0 -6.5188e-08 0 1.629e-05)
(7.0584e-05 2.4172e-08 0 -6.265e-08 0 1.6274e-05)
(7.0518e-05 2.2705e-08 0 -6.0003e-08 0 1.626e-05)
(7.0456e-05 2.2144e-08 0 -5.7319e-08 0 1.6246e-05)
(7.0394e-05 2.2354e-08 0 -5.4651e-08 0 1.6232e-05)
(7.0329e-05 2.3269e-08 0 -5.2032e-08 0 1.6218e-05)
(7.0261e-05 2.4873e-08 0 -4.9476e-08 0 1.6203e-05)
(7.0185e-05 2.7166e-08 0 -4.6983e-08 0 1.6186e-05)
(7.0099e-05 3.0153e-08 0 -4.455e-08 0 1.6166e-05)
(7.0002e-05 3.3834e-08 0 -4.2166e-08 0 1.6145e-05)
(6.989e-05 3.8175e-08 0 -3.9815e-08 0 1.6119e-05)
(6.9762e-05 4.3115e-08 0 -3.7495e-08 0 1.609e-05)
(6.9614e-05 4.8559e-08 0 -3.5191e-08 0 1.6057e-05)
(6.9446e-05 5.4358e-08 0 -3.2871e-08 0 1.6018e-05)
(6.9254e-05 6.0254e-08 0 -3.0727e-08 0 1.5975e-05)
(6.9045e-05 6.6661e-08 0 -2.9641e-08 0 1.5927e-05)
(6.8846e-05 7.5792e-08 0 -2.8405e-08 0 1.5881e-05)
(6.853e-05 8.4823e-08 0 -2.5428e-08 0 1.5809e-05)
(6.8236e-05 9.163e-08 0 -2.2764e-08 0 1.5742e-05)
(6.7915e-05 9.8664e-08 0 -2.1209e-08 0 1.5668e-05)
(6.7566e-05 1.0625e-07 0 -1.9681e-08 0 1.5588e-05)
(6.7188e-05 1.1414e-07 0 -1.8122e-08 0 1.5501e-05)
(6.6782e-05 1.2221e-07 0 -1.6612e-08 0 1.5407e-05)
(6.6347e-05 1.3041e-07 0 -1.5166e-08 0 1.5307e-05)
(6.5883e-05 1.3872e-07 0 -1.3787e-08 0 1.52e-05)
(6.5389e-05 1.4715e-07 0 -1.2475e-08 0 1.5087e-05)
(6.4864e-05 1.557e-07 0 -1.1232e-08 0 1.4966e-05)
(6.4309e-05 1.6435e-07 0 -1.0058e-08 0 1.4838e-05)
(6.3724e-05 1.7312e-07 0 -8.9566e-09 0 1.4703e-05)
(6.3107e-05 1.8201e-07 0 -7.9287e-09 0 1.4561e-05)
(6.2458e-05 1.9102e-07 0 -6.9765e-09 0 1.4412e-05)
(6.1776e-05 2.0014e-07 0 -6.1026e-09 0 1.4255e-05)
(6.1062e-05 2.0938e-07 0 -5.3099e-09 0 1.409e-05)
(6.0315e-05 2.1872e-07 0 -4.6016e-09 0 1.3918e-05)
(5.9535e-05 2.2817e-07 0 -3.9811e-09 0 1.3738e-05)
(5.872e-05 2.377e-07 0 -3.4519e-09 0 1.355e-05)
(5.7872e-05 2.4731e-07 0 -3.0178e-09 0 1.3354e-05)
(5.6989e-05 2.5697e-07 0 -2.6826e-09 0 1.3151e-05)
(5.6071e-05 2.6667e-07 0 -2.4501e-09 0 1.2939e-05)
(5.5119e-05 2.7638e-07 0 -2.3238e-09 0 1.2719e-05)
(5.4132e-05 2.8608e-07 0 -2.3073e-09 0 1.2491e-05)
(5.311e-05 2.9574e-07 0 -2.4037e-09 0 1.2256e-05)
(5.2053e-05 3.0533e-07 0 -2.6159e-09 0 1.2012e-05)
(5.0963e-05 3.1481e-07 0 -2.9465e-09 0 1.176e-05)
(4.9839e-05 3.2414e-07 0 -3.3973e-09 0 1.15e-05)
(4.8681e-05 3.3329e-07 0 -3.9698e-09 0 1.1233e-05)
(4.7491e-05 3.4221e-07 0 -4.665e-09 0 1.0958e-05)
(4.6269e-05 3.5087e-07 0 -5.4831e-09 0 1.0676e-05)
(4.5017e-05 3.5922e-07 0 -6.4236e-09 0 1.0387e-05)
(4.3735e-05 3.6721e-07 0 -7.4856e-09 0 1.0091e-05)
(4.2425e-05 3.748e-07 0 -8.6671e-09 0 9.7883e-06)
(4.1088e-05 3.8193e-07 0 -9.9655e-09 0 9.4796e-06)
(3.9727e-05 3.8857e-07 0 -1.1377e-08 0 9.165e-06)
(3.8342e-05 3.9466e-07 0 -1.2899e-08 0 8.8451e-06)
(3.6936e-05 4.0015e-07 0 -1.4524e-08 0 8.5204e-06)
(3.5512e-05 4.05e-07 0 -1.6248e-08 0 8.1912e-06)
(3.407e-05 4.0917e-07 0 -1.8064e-08 0 7.8583e-06)
(3.2616e-05 4.126e-07 0 -1.9964e-08 0 7.5221e-06)
(3.1149e-05 4.1525e-07 0 -2.194e-08 0 7.1833e-06)
(2.9675e-05 4.1709e-07 0 -2.3983e-08 0 6.8425e-06)
(2.8195e-05 4.1808e-07 0 -2.6084e-08 0 6.5005e-06)
(2.6713e-05 4.1818e-07 0 -2.823e-08 0 6.1579e-06)
(2.5231e-05 4.1737e-07 0 -3.0411e-08 0 5.8156e-06)
(2.3755e-05 4.156e-07 0 -3.2616e-08 0 5.4743e-06)
(2.2285e-05 4.1286e-07 0 -3.4831e-08 0 5.1348e-06)
(2.0828e-05 4.0913e-07 0 -3.7042e-08 0 4.7978e-06)
(1.9385e-05 4.044e-07 0 -3.9236e-08 0 4.4644e-06)
(1.7961e-05 3.9863e-07 0 -4.1399e-08 0 4.1352e-06)
(1.6559e-05 3.9184e-07 0 -4.3515e-08 0 3.8112e-06)
(1.5182e-05 3.8402e-07 0 -4.5568e-08 0 3.4931e-06)
(1.3836e-05 3.7515e-07 0 -4.7543e-08 0 3.182e-06)
(1.2523e-05 3.6526e-07 0 -4.9422e-08 0 2.8786e-06)
(1.1248e-05 3.5434e-07 0 -5.1189e-08 0 2.5838e-06)
(1.0013e-05 3.4242e-07 0 -5.2826e-08 0 2.2985e-06)
(8.8227e-06 3.295e-07 0 -5.4316e-08 0 2.0235e-06)
(7.6804e-06 3.1561e-07 0 -5.564e-08 0 1.7596e-06)
(6.5897e-06 3.0077e-07 0 -5.6779e-08 0 1.5076e-06)
(5.5539e-06 2.8502e-07 0 -5.7714e-08 0 1.2684e-06)
(4.5763e-06 2.684e-07 0 -5.8425e-08 0 1.0426e-06)
(3.6599e-06 2.5095e-07 0 -5.8894e-08 0 8.31e-07)
(2.8077e-06 2.3271e-07 0 -5.9099e-08 0 6.343e-07)
(2.0226e-06 2.1376e-07 0 -5.9021e-08 0 4.5314e-07)
(1.3071e-06 1.9414e-07 0 -5.8638e-08 0 2.881e-07)
(6.6336e-07 1.7395e-07 0 -5.793e-08 0 1.3971e-07)
(9.3542e-08 1.5328e-07 0 -5.6877e-08 0 8.4611e-09)
(-4.0072e-07 1.3221e-07 0 -5.5458e-08 0 -1.0527e-07)
(-8.1814e-07 1.1089e-07 0 -5.3656e-08 0 -2.0118e-07)
(-1.1579e-06 8.9453e-08 0 -5.1453e-08 0 -2.7909e-07)
(-1.4198e-06 6.8069e-08 0 -4.8835e-08 0 -3.3891e-07)
(-1.6042e-06 4.6947e-08 0 -4.5794e-08 0 -3.8076e-07)
(-1.7123e-06 2.6336e-08 0 -4.2327e-08 0 -4.0491e-07)
(-1.7464e-06 6.5408e-09 0 -3.8445e-08 0 -4.1188e-07)
(-1.7099e-06 -1.2061e-08 0 -3.4179e-08 0 -4.0248e-07)
(-1.6079e-06 -2.9e-08 0 -2.9589e-08 0 -3.7787e-07)
(-1.4473e-06 -4.3677e-08 0 -2.479e-08 0 -3.3971e-07)
(-1.2378e-06 -5.5334e-08 0 -1.9992e-08 0 -2.9025e-07)
(-9.9227e-07 -6.3002e-08 0 -1.5571e-08 0 -2.3258e-07)
(-7.2819e-07 -6.5485e-08 0 -1.219e-08 0 -1.7086e-07)
(-4.6836e-07 -6.1489e-08 0 -1.0874e-08 0 -1.1059e-07)
(-2.4155e-07 -5.0156e-08 0 -1.2613e-08 0 -5.8653e-08)
(-8.0377e-08 -3.252e-08 0 -1.5775e-08 0 -2.2189e-08)
(-6.0365e-09 -1.3529e-08 0 -5.9814e-09 0 -2.7734e-09)
(34194 8297.5 0 5058.9 0 9058.5)
(35142 5396.7 0 1558.1 0 8469.2)
(33247 3594.1 0 575.61 0 7805.3)
(31298 2549.4 0 342.8 0 7301.6)
(29734 1961.8 0 261.41 0 6922.1)
(28485 1605.2 0 202.82 0 6620.3)
(27448 1366.4 0 153.96 0 6369.6)
(26555 1195.2 0 115.98 0 6154.8)
(25766 1067.5 0 88.093 0 5966.4)
(25057 969.87 0 68.095 0 5798.2)
(24410 893.47 0 53.816 0 5645.4)
(23811 832.38 0 43.572 0 5504.9)
(23252 782.4 0 36.174 0 5374.2)
(22726 740.54 0 30.797 0 5251.6)
(22228 704.64 0 26.87 0 5135.8)
(21755 673.14 0 23.995 0 5025.8)
(21302 644.89 0 21.887 0 4921)
(20869 619.05 0 20.342 0 4820.6)
(20454 595 0 19.215 0 4724.5)
(20054 572.26 0 18.396 0 4632.2)
(19671 550.49 0 17.807 0 4543.6)
(19302 529.43 0 17.39 0 4458.4)
(18948 508.88 0 17.103 0 4376.5)
(18608 488.69 0 16.912 0 4298)
(18281 468.75 0 16.795 0 4222.6)
(17968 448.96 0 16.734 0 4150.3)
(17668 429.27 0 16.713 0 4081.2)
(17382 409.64 0 16.723 0 4015.1)
(17109 390.01 0 16.752 0 3952.1)
(16849 370.37 0 16.794 0 3892.2)
(16603 350.71 0 16.841 0 3835.3)
(16369 331.03 0 16.883 0 3781.4)
(16149 311.33 0 16.913 0 3730.6)
(15942 291.64 0 16.921 0 3682.8)
(15748 271.98 0 16.899 0 3638.1)
(15567 252.39 0 16.834 0 3596.3)
(15399 232.93 0 16.713 0 3557.6)
(15245 213.68 0 16.522 0 3521.8)
(15102 194.72 0 16.247 0 3488.9)
(14972 176.16 0 15.869 0 3458.9)
(14855 158.12 0 15.37 0 3431.6)
(14749 140.74 0 14.734 0 3407)
(14654 124.2 0 13.942 0 3385)
(14570 108.68 0 12.979 0 3365.3)
(14496 94.36 0 11.832 0 3348)
(14431 81.452 0 10.497 0 3332.6)
(14374 70.159 0 8.9736 0 3319.1)
(14324 60.677 0 7.2747 0 3307.2)
(14280 53.179 0 5.4241 0 3296.6)
(14240 47.805 0 3.4596 0 3286.9)
(14203 44.645 0 1.4332 0 3278)
(14168 43.726 0 -0.58984 0 3269.5)
(14134 44.998 0 -2.5339 0 3261.1)
(14098 48.329 0 -4.3176 0 3252.5)
(14061 53.498 0 -5.8602 0 3243.4)
(14020 60.205 0 -7.0892 0 3233.6)
(13974 68.083 0 -7.9483 0 3223)
(13924 76.717 0 -8.4043 0 3211.4)
(13869 85.671 0 -8.4518 0 3198.6)
(13809 94.52 0 -8.115 0 3184.7)
(13743 102.88 0 -7.4458 0 3169.7)
(13673 110.42 0 -6.5177 0 3153.7)
(13598 116.92 0 -5.4179 0 3136.7)
(13520 122.23 0 -4.2378 0 3119)
(13439 126.29 0 -3.0629 0 3100.5)
(13355 129.14 0 -1.9655 0 3081.5)
(13271 130.89 0 -0.99945 0 3062.2)
(13185 131.68 0 -0.19779 0 3042.7)
(13099 131.69 0 0.42626 0 3023)
(13013 131.1 0 0.87659 0 3003.3)
(12928 130.08 0 1.17 0 2983.7)
(12843 128.79 0 1.3317 0 2964.2)
(12760 127.35 0 1.3911 0 2944.8)
(12677 125.86 0 1.3786 0 2925.7)
(12594 124.38 0 1.3226 0 2906.7)
(12513 122.95 0 1.2491 0 2888)
(12433 121.57 0 1.1801 0 2869.4)
(12354 120.24 0 1.1346 0 2851.1)
(12275 118.91 0 1.128 0 2832.9)
(12197 117.56 0 1.1732 0 2815)
(12121 116.1 0 1.2803 0 2797.3)
(12045 114.48 0 1.4569 0 2779.9)
(11970 112.62 0 1.708 0 2762.8)
(11897 110.43 0 2.0353 0 2745.9)
(11825 107.84 0 2.436 0 2729.5)
(11755 104.78 0 2.9022 0 2713.5)
(11688 101.18 0 3.4199 0 2698)
(11623 97.019 0 3.9671 0 2683)
(11560 92.271 0 4.5134 0 2668.8)
(11501 86.965 0 5.0219 0 2655.2)
(11445 81.169 0 5.45 0 2642.4)
(11393 74.997 0 5.752 0 2630.5)
(11345 68.61 0 5.8847 0 2619.4)
(11301 62.208 0 5.8124 0 2609.2)
(11260 56.025 0 5.5093 0 2599.8)
(11224 50.307 0 4.968 0 2591.2)
(11190 45.296 0 4.2047 0 2583.3)
(11160 41.209 0 3.2547 0 2576.1)
(11131 38.209 0 2.173 0 2569.3)
(11105 36.395 0 1.0332 0 2562.8)
(11079 35.786 0 -0.085207 0 2556.6)
(11053 36.315 0 -1.1042 0 2550.4)
(11026 37.836 0 -1.9504 0 2544.1)
(10999 40.138 0 -2.5678 0 2537.6)
(10970 42.961 0 -2.9207 0 2530.8)
(10939 46.015 0 -2.9907 0 2523.7)
(10907 49.001 0 -2.7828 0 2516.3)
(10873 51.636 0 -2.3231 0 2508.5)
(10837 53.675 0 -1.653 0 2500.5)
(10801 54.92 0 -0.82517 0 2492.3)
(10764 55.232 0 0.10021 0 2484.1)
(10728 54.539 0 1.06 0 2475.9)
(10692 52.836 0 1.992 0 2467.8)
(10657 50.181 0 2.8388 0 2460.1)
(10625 46.689 0 3.5511 0 2452.7)
(10595 42.522 0 4.091 0 2445.9)
(10567 37.875 0 4.4343 0 2439.7)
(10543 32.962 0 4.5718 0 2434)
(10522 27.998 0 4.5102 0 2429.1)
(10503 23.185 0 4.2699 0 2424.8)
(10488 18.699 0 3.8833 0 2421.1)
(10475 14.676 0 3.3895 0 2418.1)
(10464 11.212 0 2.8305 0 2415.5)
(10456 8.3604 0 2.2459 0 2413.4)
(10449 6.1353 0 1.669 0 2411.7)
(10443 4.5195 0 1.1242 0 2410.3)
(10439 3.4743 0 0.62685 0 2409)
(10434 2.9476 0 0.1837 0 2408)
(10430 2.8821 0 -0.20433 0 2406.9)
(10426 3.2194 0 -0.53925 0 2405.9)
(10422 3.9019 0 -0.82306 0 2404.9)
(10417 4.8722 0 -1.0556 0 2403.7)
(10412 6.0704 0 -1.2337 0 2402.5)
(10406 7.432 0 -1.3516 0 2401)
(10399 8.8861 0 -1.4024 0 2399.4)
(10391 10.355 0 -1.38 0 2397.6)
(10382 11.759 0 -1.2818 0 2395.6)
(10373 13.014 0 -1.1096 0 2393.5)
(10363 14.047 0 -0.87095 0 2391.2)
(10352 14.79 0 -0.5785 0 2388.9)
(10341 15.195 0 -0.24874 0 2386.4)
(10330 15.229 0 0.10007 0 2384)
(10320 14.88 0 0.45038 0 2381.5)
(10309 14.151 0 0.78765 0 2379.2)
(10299 13.059 0 1.1021 0 2377)
(10290 11.628 0 1.3895 0 2375)
(10282 9.8855 0 1.6514 0 2373.2)
(10276 7.8532 0 1.8935 0 2371.7)
(10270 5.548 0 2.1242 0 2370.5)
(10267 2.9784 0 2.3522 0 2369.7)
(10265 0.14545 0 2.5838 0 2369.3)
(10265 -2.9532 0 2.8214 0 2369.4)
(10267 -6.3188 0 3.0616 0 2369.9)
(10271 -9.9456 0 3.2952 0 2371)
(10278 -13.815 0 3.5072 0 2372.6)
(10287 -17.889 0 3.6779 0 2374.8)
(10299 -22.109 0 3.7852 0 2377.6)
(10314 -26.392 0 3.8063 0 2381)
(10331 -30.633 0 3.7205 0 2385)
(10352 -34.708 0 3.5113 0 2389.6)
(10374 -38.479 0 3.1688 0 2394.8)
(10399 -41.803 0 2.6922 0 2400.5)
(10427 -44.544 0 2.0906 0 2406.6)
(10455 -46.581 0 1.3851 0 2413.1)
(10485 -47.823 0 0.6085 0 2419.8)
(10516 -48.221 0 -0.19515 0 2426.6)
(10546 -47.776 0 -0.97267 0 2433.5)
(10577 -46.548 0 -1.6655 0 2440.4)
(10606 -44.659 0 -2.215 0 2447.1)
(10635 -42.288 0 -2.569 0 2453.6)
(10662 -39.66 0 -2.6891 0 2459.8)
(10688 -37.029 0 -2.5571 0 2465.8)
(10712 -34.655 0 -2.1796 0 2471.5)
(10735 -32.777 0 -1.5902 0 2477)
(10758 -31.584 0 -0.84701 0 2482.3)
(10780 -31.197 0 -0.026805 0 2487.6)
(10802 -31.653 0 0.78448 0 2492.9)
(10824 -32.901 0 1.5028 0 2498.3)
(10848 -34.809 0 2.057 0 2503.9)
(10873 -37.185 0 2.3982 0 2509.7)
(10900 -39.797 0 2.5053 0 2515.9)
(10928 -42.41 0 2.3867 0 2522.3)
(10957 -44.808 0 2.0781 0 2529.1)
(10988 -46.822 0 1.6364 0 2536.1)
(11020 -48.348 0 1.132 0 2543.4)
(11053 -49.356 0 0.6385 0 2550.9)
(11086 -49.886 0 0.22345 0 2558.5)
(11120 -50.04 0 -0.0618 0 2566.2)
(11154 -49.957 0 -0.19028 0 2573.9)
(11187 -49.788 0 -0.16566 0 2581.6)
(11220 -49.664 0 -0.025036 0 2589.3)
(11254 -49.659 0 0.16299 0 2597.1)
(11287 -49.767 0 0.3058 0 2604.7)
(11320 -49.882 0 0.30001 0 2612.4)
(11353 -49.799 0 0.049412 0 2619.9)
(11386 -49.232 0 -0.5152 0 2627.3)
(11417 -47.85 0 -1.4179 0 2634.5)
(11448 -45.33 0 -2.6259 0 2641.2)
(11476 -41.417 0 -4.047 0 2647.4)
(11501 -35.975 0 -5.5391 0 2652.8)
(11522 -29.033 0 -6.9306 0 2657.4)
(11539 -20.796 0 -8.0466 0 2660.9)
(11550 -11.636 0 -8.7376 0 2663.3)
(11555 -2.0537 0 -8.9022 0 2664.5)
(11554 7.3761 0 -8.501 0 2664.4)
(11548 16.069 0 -7.5565 0 2663.2)
(11537 23.488 0 -6.1431 0 2660.9)
(11521 29.189 0 -4.369 0 2657.8)
(11503 32.846 0 -2.3549 0 2654.1)
(11484 34.256 0 -0.21666 0 2650)
(11464 33.327 0 1.9478 0 2645.9)
(11445 30.062 0 4.0634 0 2642.1)
(11429 24.535 0 6.0768 0 2638.8)
(11417 16.873 0 7.9507 0 2636.5)
(11410 7.2416 0 9.6576 0 2635.4)
(11410 -4.1617 0 11.173 0 2635.6)
(11417 -17.11 0 12.472 0 2637.6)
(11433 -31.345 0 13.528 0 2641.4)
(11457 -46.578 0 14.313 0 2647.3)
(11491 -62.49 0 14.801 0 2655.2)
(11535 -78.732 0 14.966 0 2665.4)
(11589 -94.928 0 14.785 0 2677.7)
(11652 -110.68 0 14.237 0 2692.2)
(11725 -125.56 0 13.3 0 2708.8)
(11806 -139.12 0 11.95 0 2727.2)
(11895 -150.89 0 10.164 0 2747.3)
(11990 -160.38 0 7.9256 0 2768.7)
(12089 -167.09 0 5.2306 0 2791)
(12191 -170.53 0 2.0962 0 2813.9)
(12294 -170.26 0 -1.4315 0 2836.7)
(12395 -165.9 0 -5.2746 0 2859.1)
(12491 -157.17 0 -9.3242 0 2880.3)
(12579 -143.92 0 -13.448 0 2899.8)
(12658 -126.16 0 -17.501 0 2917)
(12723 -104.04 0 -21.34 0 2931.2)
(12773 -77.844 0 -24.837 0 2941.8)
(12804 -48.005 0 -27.893 0 2948.4)
(12815 -15.025 0 -30.444 0 2950.4)
(12805 20.542 0 -32.466 0 2947.4)
(12770 58.136 0 -33.972 0 2939.1)
(12711 97.225 0 -35.012 0 2925.3)
(12626 137.34 0 -35.658 0 2905.6)
(12516 178.1 0 -36.001 0 2879.9)
(12378 219.23 0 -36.143 0 2848.2)
(12214 260.54 0 -36.185 0 2810.3)
(12023 301.97 0 -36.227 0 2766.2)
(11805 343.56 0 -36.36 0 2715.9)
(11560 385.44 0 -36.67 0 2659.3)
(11288 427.81 0 -37.235 0 2596.3)
(10988 470.99 0 -38.133 0 2526.8)
(10659 515.37 0 -39.458 0 2450.7)
(10302 561.43 0 -41.333 0 2367.8)
(9914.2 609.81 0 -43.937 0 2277.7)
(9495.5 661.33 0 -47.543 0 2180.3)
(9044.1 717.05 0 -52.584 0 2075)
(8558.2 778.35 0 -59.713 0 1961.2)
(8036.1 847.03 0 -69.772 0 1838.4)
(7476.4 925.32 0 -83.382 0 1706.1)
(6878.9 1016.1 0 -99.507 0 1564.5)
(6247.3 1123.8 0 -112.01 0 1415.8)
(5596.9 1257.3 0 -103.35 0 1267.7)
(4998 1437.1 0 -35.239 0 1145.3)
(4648.9 1689.2 0 152.51 0 1108)
(4190.1 1863.9 0 348.23 0 1047.3)
(1820.9 658.16 0 212.03 0 469.14)
(6.5425 1.5503 0 0.68637 0 1.6682)
(0.013493 0.0018841 0 0.00057743 0 0.0032469)
(0.00012286 1.109e-05 0 2.5991e-06 0 2.8951e-05)
(8.5364e-05 6.3211e-06 0 3.586e-06 0 2.0527e-05)
(7.0274e-05 1.352e-06 0 -8.7743e-07 0 1.6015e-05)
(8.1748e-05 -1.2767e-06 0 1.5552e-06 0 1.9224e-05)
(8.6277e-05 4.0717e-07 0 6.76e-07 0 2.0066e-05)
(8.6875e-05 -1.0271e-07 0 -3.4216e-07 0 1.9969e-05)
(8.7282e-05 5.68e-07 0 -6.3868e-07 0 1.9995e-05)
(8.706e-05 1.2151e-06 0 -6.9637e-07 0 1.993e-05)
(8.6312e-05 1.6454e-06 0 -3.1644e-08 0 1.9911e-05)
(8.5396e-05 1.673e-06 0 2.8438e-07 0 1.9772e-05)
(8.4422e-05 1.5784e-06 0 2.12e-07 0 1.9531e-05)
(8.3367e-05 1.4799e-06 0 1.1253e-07 0 1.9265e-05)
(8.223e-05 1.4122e-06 0 7.0296e-08 0 1.8992e-05)
(8.1154e-05 1.3262e-06 0 3.1986e-08 0 1.8735e-05)
(8.0361e-05 1.1841e-06 0 -5.185e-08 0 1.8533e-05)
(7.9447e-05 1.1497e-06 0 -1.096e-07 0 1.8309e-05)
(7.7961e-05 1.3551e-06 0 -2.887e-08 0 1.7984e-05)
(7.6718e-05 1.4514e-06 0 1.0123e-07 0 1.7727e-05)
(7.6416e-05 1.291e-06 0 1.4836e-07 0 1.7669e-05)
(7.5931e-05 1.1044e-06 0 1.2645e-07 0 1.7552e-05)
(7.5348e-05 9.5039e-07 0 1.0798e-07 0 1.7413e-05)
(7.4776e-05 8.2273e-07 0 9.8851e-08 0 1.7279e-05)
(7.4264e-05 7.103e-07 0 9.3222e-08 0 1.7159e-05)
(7.381e-05 6.081e-07 0 8.7756e-08 0 1.7053e-05)
(7.3418e-05 5.1417e-07 0 8.0935e-08 0 1.6961e-05)
(7.3082e-05 4.2935e-07 0 7.1907e-08 0 1.6882e-05)
(7.2796e-05 3.553e-07 0 6.1067e-08 0 1.6813e-05)
(7.2553e-05 2.9318e-07 0 4.9473e-08 0 1.6754e-05)
(7.2346e-05 2.4316e-07 0 3.8235e-08 0 1.6704e-05)
(7.2167e-05 2.0456e-07 0 2.8189e-08 0 1.666e-05)
(7.2011e-05 1.7602e-07 0 1.9786e-08 0 1.6622e-05)
(7.187e-05 1.5592e-07 0 1.3091e-08 0 1.6588e-05)
(7.1742e-05 1.4267e-07 0 7.8839e-09 0 1.6558e-05)
(7.162e-05 1.3492e-07 0 3.7947e-09 0 1.6529e-05)
(7.1504e-05 1.3172e-07 0 4.272e-10 0 1.6501e-05)
(7.1388e-05 1.3244e-07 0 -2.5682e-09 0 1.6474e-05)
(7.1271e-05 1.3677e-07 0 -5.4457e-09 0 1.6446e-05)
(7.115e-05 1.4462e-07 0 -8.3403e-09 0 1.6417e-05)
(7.1023e-05 1.5596e-07 0 -1.1286e-08 0 1.6387e-05)
(7.0888e-05 1.7078e-07 0 -1.4243e-08 0 1.6355e-05)
(7.0741e-05 1.8903e-07 0 -1.7126e-08 0 1.6321e-05)
(7.0581e-05 2.1057e-07 0 -1.9854e-08 0 1.6283e-05)
(7.0406e-05 2.3515e-07 0 -2.2386e-08 0 1.6242e-05)
(7.0213e-05 2.6252e-07 0 -2.4689e-08 0 1.6197e-05)
(7e-05 2.9233e-07 0 -2.6792e-08 0 1.6148e-05)
(6.9765e-05 3.2384e-07 0 -2.8987e-08 0 1.6093e-05)
(6.9507e-05 3.574e-07 0 -3.1479e-08 0 1.6033e-05)
(6.9226e-05 3.9657e-07 0 -3.2783e-08 0 1.5968e-05)
(6.8922e-05 4.364e-07 0 -3.2339e-08 0 1.5898e-05)
(6.8601e-05 4.731e-07 0 -3.2193e-08 0 1.5824e-05)
(6.825e-05 5.1079e-07 0 -3.2921e-08 0 1.5742e-05)
(6.787e-05 5.4968e-07 0 -3.3616e-08 0 1.5654e-05)
(6.7462e-05 5.8946e-07 0 -3.4195e-08 0 1.556e-05)
(6.7027e-05 6.2996e-07 0 -3.4716e-08 0 1.546e-05)
(6.6565e-05 6.711e-07 0 -3.5207e-08 0 1.5353e-05)
(6.6074e-05 7.1283e-07 0 -3.5684e-08 0 1.524e-05)
(6.5555e-05 7.5514e-07 0 -3.6158e-08 0 1.512e-05)
(6.5007e-05 7.9801e-07 0 -3.6639e-08 0 1.4993e-05)
(6.443e-05 8.4145e-07 0 -3.7129e-08 0 1.486e-05)
(6.3823e-05 8.8547e-07 0 -3.7631e-08 0 1.472e-05)
(6.3185e-05 9.3006e-07 0 -3.8139e-08 0 1.4572e-05)
(6.2518e-05 9.7523e-07 0 -3.865e-08 0 1.4418e-05)
(6.1819e-05 1.021e-06 0 -3.9153e-08 0 1.4257e-05)
(6.109e-05 1.0673e-06 0 -3.964e-08 0 1.4088e-05)
(6.0329e-05 1.1141e-06 0 -4.0098e-08 0 1.3913e-05)
(5.9536e-05 1.1614e-06 0 -4.0516e-08 0 1.373e-05)
(5.8711e-05 1.209e-06 0 -4.088e-08 0 1.3539e-05)
(5.7853e-05 1.2571e-06 0 -4.1177e-08 0 1.3341e-05)
(5.6964e-05 1.3054e-06 0 -4.1394e-08 0 1.3136e-05)
(5.6041e-05 1.3538e-06 0 -4.1518e-08 0 1.2923e-05)
(5.5086e-05 1.4023e-06 0 -4.1536e-08 0 1.2703e-05)
(5.4099e-05 1.4507e-06 0 -4.1435e-08 0 1.2475e-05)
(5.3079e-05 1.4989e-06 0 -4.1205e-08 0 1.224e-05)
(5.2027e-05 1.5466e-06 0 -4.0833e-08 0 1.1997e-05)
(5.0944e-05 1.5938e-06 0 -4.031e-08 0 1.1747e-05)
(4.9829e-05 1.6403e-06 0 -3.9625e-08 0 1.149e-05)
(4.8683e-05 1.6858e-06 0 -3.8769e-08 0 1.1226e-05)
(4.7508e-05 1.7301e-06 0 -3.7733e-08 0 1.0955e-05)
(4.6303e-05 1.7731e-06 0 -3.651e-08 0 1.0677e-05)
(4.5071e-05 1.8145e-06 0 -3.5094e-08 0 1.0393e-05)
(4.3811e-05 1.8541e-06 0 -3.3479e-08 0 1.0103e-05)
(4.2526e-05 1.8917e-06 0 -3.1661e-08 0 9.8064e-06)
(4.1217e-05 1.927e-06 0 -2.9637e-08 0 9.5048e-06)
(3.9886e-05 1.9598e-06 0 -2.7406e-08 0 9.198e-06)
(3.8533e-05 1.9899e-06 0 -2.4969e-08 0 8.8865e-06)
(3.7162e-05 2.0169e-06 0 -2.2327e-08 0 8.5708e-06)
(3.5775e-05 2.0408e-06 0 -1.9486e-08 0 8.2512e-06)
(3.4373e-05 2.0612e-06 0 -1.6449e-08 0 7.9284e-06)
(3.2959e-05 2.078e-06 0 -1.3226e-08 0 7.6029e-06)