/*--------------------------------*- C++ -*----------------------------------*\
| =========                 |                                                 |
| \\      /  F ield         | OpenFOAM: The Open Source CFD Toolbox           |
|  \\    /   O peration     | Version:  5.x                                   |
|   \\  /    A nd           | Web:      www.OpenFOAM.org                      |
|    \\/     M anipulation  |                                                 |
\*---------------------------------------------------------------------------*/
FoamFile
{
    version     2.0;
    format      ascii;
    class       volSymmTensorField;
    location    "50";
    object      sigmaD;
}
// * * * * * * * * * * * * * * * * * * * * * * * * * * * * * * * * * * * * * //

dimensions      [0 2 -2 0 0 0 0];

internalField   nonuniform List<symmTensor> 
80000
(
(50439 3676.2 0 2716.7 0 12267)
(38358 1489.3 0 171.06 0 8891.4)
(34272 755.17 0 -71.094 0 7892.5)
(31993 501.81 0 -16.199 0 7379.3)
(30389 389.94 0 19.803 0 7017.4)
(29121 323.3 0 28.547 0 6726.7)
(28062 276.75 0 27.577 0 6482.2)
(27150 242.49 0 24.913 0 6271.1)
(26344 216.77 0 22.686 0 6084.6)
(25618 197.14 0 21.099 0 5916.7)
(24953 181.85 0 19.954 0 5763)
(24335 169.66 0 19.059 0 5620.2)
(23756 159.71 0 18.291 0 5486.3)
(23208 151.37 0 17.578 0 5359.7)
(22687 144.2 0 16.884 0 5239.3)
(22189 137.88 0 16.191 0 5124.2)
(21711 132.2 0 15.493 0 5013.9)
(21253 126.96 0 14.789 0 4907.9)
(20812 122.07 0 14.082 0 4806)
(20388 117.42 0 13.377 0 4708)
(19980 112.94 0 12.679 0 4613.6)
(19587 108.59 0 11.995 0 4522.8)
(19209 104.33 0 11.329 0 4435.6)
(18847 100.13 0 10.688 0 4351.7)
(18499 95.965 0 10.075 0 4271.4)
(18166 91.828 0 9.4964 0 4194.4)
(17848 87.704 0 8.9553 0 4120.8)
(17544 83.583 0 8.4557 0 4050.7)
(17256 79.462 0 8.0007 0 3983.9)
(16981 75.335 0 7.5935 0 3920.6)
(16722 71.201 0 7.2365 0 3860.6)
(16478 67.061 0 6.9322 0 3804.1)
(16248 62.916 0 6.6826 0 3751.1)
(16033 58.771 0 6.4893 0 3701.5)
(15833 54.633 0 6.3539 0 3655.3)
(15649 50.509 0 6.2772 0 3612.6)
(15478 46.412 0 6.2597 0 3573.4)
(15323 42.356 0 6.3015 0 3537.5)
(15182 38.359 0 6.4018 0 3505)
(15055 34.442 0 6.5592 0 3475.8)
(14942 30.631 0 6.7712 0 3449.8)
(14843 26.955 0 7.0345 0 3427)
(14757 23.447 0 7.3446 0 3407.1)
(14683 20.146 0 7.6955 0 3390.1)
(14620 17.09 0 8.0804 0 3375.8)
(14568 14.323 0 8.4909 0 3363.9)
(14526 11.888 0 8.9177 0 3354.1)
(14491 9.8277 0 9.3505 0 3346.2)
(14463 8.1798 0 9.7783 0 3339.9)
(14440 6.9769 0 10.19 0 3334.6)
(14420 6.2418 0 10.576 0 3330.2)
(14402 5.9845 0 10.924 0 3326.1)
(14384 6.1998 0 11.228 0 3321.9)
(14363 6.865 0 11.478 0 3317.3)
(14340 7.9388 0 11.671 0 3311.8)
(14311 9.3626 0 11.801 0 3305.2)
(14276 11.062 0 11.867 0 3297.2)
(14234 12.95 0 11.867 0 3287.5)
(14185 14.935 0 11.802 0 3276.2)
(14128 16.925 0 11.672 0 3263)
(14064 18.832 0 11.479 0 3248.1)
(13993 20.583 0 11.224 0 3231.6)
(13915 22.12 0 10.911 0 3213.7)
(13832 23.405 0 10.543 0 3194.5)
(13745 24.421 0 10.126 0 3174.3)
(13655 25.169 0 9.664 0 3153.3)
(13562 25.665 0 9.1658 0 3131.8)
(13468 25.938 0 8.6385 0 3109.9)
(13373 26.024 0 8.0901 0 3087.9)
(13278 25.964 0 7.5284 0 3066)
(13184 25.794 0 6.9604 0 3044.1)
(13091 25.552 0 6.3921 0 3022.4)
(12998 25.268 0 5.8282 0 3000.9)
(12907 24.965 0 5.272 0 2979.7)
(12817 24.664 0 4.7256 0 2958.8)
(12728 24.375 0 4.19 0 2938.2)
(12640 24.107 0 3.6652 0 2917.7)
(12553 23.861 0 3.151 0 2897.6)
(12467 23.636 0 2.6466 0 2877.6)
(12381 23.428 0 2.1513 0 2857.8)
(12297 23.228 0 1.6644 0 2838.1)
(12213 23.028 0 1.1857 0 2818.7)
(12130 22.814 0 0.71535 0 2799.4)
(12048 22.575 0 0.25415 0 2780.3)
(11966 22.296 0 -0.19656 0 2761.4)
(11886 21.961 0 -0.63472 0 2742.7)
(11807 21.554 0 -1.0574 0 2724.4)
(11730 21.059 0 -1.4616 0 2706.5)
(11654 20.463 0 -1.8438 0 2689)
(11581 19.754 0 -2.2007 0 2672.1)
(11511 18.925 0 -2.5288 0 2655.8)
(11444 17.974 0 -2.8256 0 2640.4)
(11381 16.907 0 -3.0884 0 2625.8)
(11323 15.738 0 -3.3152 0 2612.1)
(11268 14.492 0 -3.5069 0 2599.5)
(11219 13.198 0 -3.6649 0 2588.1)
(11174 11.9 0 -3.7903 0 2577.7)
(11134 10.643 0 -3.887 0 2568.5)
(11099 9.4789 0 -3.9594 0 2560.3)
(11067 8.4556 0 -4.0094 0 2553.1)
(11040 7.616 0 -4.0403 0 2546.7)
(11015 6.991 0 -4.0571 0 2540.9)
(10991 6.6002 0 -4.0632 0 2535.5)
(10969 6.4495 0 -4.0636 0 2530.4)
(10947 6.5305 0 -4.0628 0 2525.3)
(10924 6.8173 0 -4.0606 0 2520.1)
(10900 7.2663 0 -4.0585 0 2514.5)
(10874 7.8247 0 -4.0605 0 2508.4)
(10845 8.4346 0 -4.0687 0 2501.8)
(10814 9.0366 0 -4.0845 0 2494.7)
(10781 9.5736 0 -4.1083 0 2487)
(10746 9.9954 0 -4.14 0 2479)
(10710 10.261 0 -4.1782 0 2470.6)
(10673 10.341 0 -4.2207 0 2462)
(10636 10.22 0 -4.2645 0 2453.5)
(10600 9.8939 0 -4.3062 0 2445.1)
(10565 9.3743 0 -4.3422 0 2437.1)
(10533 8.6825 0 -4.3688 0 2429.7)
(10504 7.8498 0 -4.3828 0 2422.9)
(10477 6.9146 0 -4.3811 0 2416.8)
(10455 5.9194 0 -4.3612 0 2411.6)
(10436 4.9074 0 -4.3211 0 2407.3)
(10421 3.9198 0 -4.2593 0 2403.9)
(10410 2.9928 0 -4.1748 0 2401.3)
(10402 2.1556 0 -4.0677 0 2399.4)
(10396 1.4291 0 -3.9383 0 2398.2)
(10394 0.82604 0 -3.7882 0 2397.6)
(10393 0.35102 0 -3.6198 0 2397.5)
(10394 0.002023 0 -3.4363 0 2397.7)
(10395 -0.22811 0 -3.2414 0 2398.2)
(10398 -0.35001 0 -3.0392 0 2398.8)
(10400 -0.37639 0 -2.834 0 2399.5)
(10403 -0.32099 0 -2.6294 0 2400.1)
(10405 -0.19803 0 -2.4289 0 2400.6)
(10407 -0.022012 0 -2.2347 0 2401)
(10408 0.19216 0 -2.0487 0 2401.3)
(10408 0.42906 0 -1.8715 0 2401.3)
(10406 0.6727 0 -1.7033 0 2401.1)
(10405 0.90666 0 -1.5437 0 2400.7)
(10402 1.1147 0 -1.3921 0 2400.1)
(10398 1.2812 0 -1.2475 0 2399.3)
(10394 1.3922 0 -1.1089 0 2398.4)
(10390 1.4361 0 -0.97521 0 2397.4)
(10385 1.4042 0 -0.84522 0 2396.4)
(10381 1.291 0 -0.71755 0 2395.4)
(10377 1.0941 0 -0.59056 0 2394.6)
(10374 0.81384 0 -0.46236 0 2393.9)
(10372 0.45266 0 -0.33073 0 2393.5)
(10372 0.014413 0 -0.19326 0 2393.5)
(10374 -0.49638 0 -0.047374 0 2393.9)
(10377 -1.0749 0 0.10948 0 2394.7)
(10383 -1.7164 0 0.27965 0 2396)
(10391 -2.4158 0 0.46513 0 2398)
(10401 -3.1671 0 0.66736 0 2400.5)
(10415 -3.9631 0 0.88709 0 2403.7)
(10432 -4.7941 0 1.1243 0 2407.5)
(10451 -5.6472 0 1.3781 0 2412.1)
(10474 -6.5058 0 1.6467 0 2417.5)
(10500 -7.3495 0 1.9274 0 2423.5)
(10529 -8.1542 0 2.2171 0 2430.2)
(10561 -8.8928 0 2.5114 0 2437.6)
(10595 -9.5368 0 2.8058 0 2445.6)
(10631 -10.058 0 3.0955 0 2454.1)
(10669 -10.432 0 3.3754 0 2462.9)
(10708 -10.637 0 3.6411 0 2471.9)
(10747 -10.663 0 3.8884 0 2481.1)
(10786 -10.507 0 4.1145 0 2490.1)
(10824 -10.179 0 4.3173 0 2498.9)
(10860 -9.7028 0 4.4963 0 2507.3)
(10895 -9.1138 0 4.652 0 2515.2)
(10926 -8.4576 0 4.7857 0 2522.5)
(10955 -7.7867 0 4.8993 0 2529.3)
(10982 -7.1559 0 4.9947 0 2535.4)
(11006 -6.6166 0 5.0737 0 2541)
(11028 -6.2115 0 5.1374 0 2546.1)
(11049 -5.9699 0 5.1867 0 2551)
(11069 -5.9048 0 5.2221 0 2555.7)
(11090 -6.0114 0 5.2442 0 2560.4)
(11111 -6.2691 0 5.2543 0 2565.3)
(11133 -6.6443 0 5.2542 0 2570.4)
(11157 -7.0961 0 5.2472 0 2575.9)
(11183 -7.582 0 5.2375 0 2581.8)
(11210 -8.0637 0 5.2299 0 2588.2)
(11239 -8.512 0 5.2301 0 2594.9)
(11270 -8.9102 0 5.2438 0 2602)
(11302 -9.2554 0 5.2766 0 2609.4)
(11336 -9.557 0 5.3332 0 2617.1)
(11370 -9.8337 0 5.4174 0 2625.1)
(11406 -10.108 0 5.531 0 2633.3)
(11442 -10.401 0 5.6739 0 2641.8)
(11480 -10.723 0 5.8433 0 2650.5)
(11519 -11.07 0 6.0337 0 2659.6)
(11559 -11.419 0 6.2371 0 2669)
(11601 -11.726 0 6.4437 0 2678.7)
(11644 -11.927 0 6.6426 0 2688.6)
(11687 -11.948 0 6.8237 0 2698.7)
(11731 -11.711 0 6.9785 0 2708.7)
(11772 -11.147 0 7.1015 0 2718.4)
(11812 -10.211 0 7.1906 0 2727.4)
(11847 -8.8865 0 7.2466 0 2735.5)
(11876 -7.1986 0 7.2723 0 2742.3)
(11898 -5.21 0 7.2714 0 2747.5)
(11913 -3.0181 0 7.2466 0 2750.9)
(11919 -0.74443 0 7.199 0 2752.3)
(11917 1.4784 0 7.1277 0 2751.8)
(11907 3.5206 0 7.0306 0 2749.4)
(11890 5.2675 0 6.9057 0 2745.4)
(11867 6.6278 0 6.7531 0 2740)
(11839 7.5382 0 6.5759 0 2733.7)
(11809 7.9627 0 6.3814 0 2726.7)
(11779 7.8891 0 6.181 0 2719.7)
(11750 7.3238 0 5.9899 0 2712.9)
(11724 6.2857 0 5.8255 0 2706.8)
(11702 4.8019 0 5.7063 0 2701.8)
(11687 2.9044 0 5.6502 0 2698.3)
(11680 0.62845 0 5.6737 0 2696.7)
(11682 -1.9866 0 5.7911 0 2697.2)
(11694 -4.8965 0 6.0142 0 2700.1)
(11718 -8.0505 0 6.3523 0 2705.7)
(11754 -11.39 0 6.8121 0 2714.1)
(11803 -14.849 0 7.3981 0 2725.5)
(11865 -18.35 0 8.1124 0 2740)
(11941 -21.809 0 8.9545 0 2757.6)
(12029 -25.134 0 9.9209 0 2778.2)
(12129 -28.224 0 11.005 0 2801.6)
(12241 -30.973 0 12.196 0 2827.6)
(12362 -33.273 0 13.48 0 2855.9)
(12491 -35.012 0 14.841 0 2886)
(12626 -36.084 0 16.26 0 2917.4)
(12763 -36.391 0 17.717 0 2949.4)
(12901 -35.851 0 19.191 0 2981.5)
(13035 -34.405 0 20.662 0 3012.8)
(13162 -32.02 0 22.111 0 3042.5)
(13279 -28.695 0 23.519 0 3069.8)
(13382 -24.46 0 24.868 0 3093.9)
(13468 -19.376 0 26.14 0 3114.1)
(13535 -13.528 0 27.317 0 3129.7)
(13578 -7.0185 0 28.382 0 3140)
(13597 0.040499 0 29.317 0 3144.5)
(13589 7.5364 0 30.105 0 3142.8)
(13553 15.364 0 30.732 0 3134.6)
(13487 23.432 0 31.183 0 3119.6)
(13392 31.667 0 31.445 0 3097.7)
(13267 40.016 0 31.509 0 3068.8)
(13110 48.45 0 31.365 0 3032.7)
(12923 56.959 0 31.003 0 2989.5)
(12705 65.552 0 30.416 0 2938.9)
(12455 74.256 0 29.593 0 2881.1)
(12173 83.112 0 28.522 0 2815.8)
(11858 92.176 0 27.185 0 2742.8)
(11510 101.52 0 25.557 0 2662.1)
(11127 111.23 0 23.597 0 2573.2)
(10707 121.44 0 21.248 0 2475.7)
(10248 132.3 0 18.424 0 2369.2)
(9746.8 144 0 14.984 0 2252.7)
(9199.3 156.82 0 10.68 0 2125.4)
(8599.7 171.18 0 5.1082 0 1985.7)
(7940.1 187.67 0 -2.3163 0 1831.8)
(7208.7 207.09 0 -12.162 0 1660.7)
(6388.3 230.53 0 -24.38 0 1468.6)
(5454.1 260.55 0 -37.254 0 1250)
(4382.9 305.16 0 -46.734 0 1000.6)
(3205.5 369.14 0 -41.786 0 730.09)
(1343.4 251.73 0 -23.414 0 304.62)
(1.863 0.26467 0 0.0654 0 0.44502)
(0.0009219 5.1556e-05 0 2.6797e-05 0 0.00021893)
(0.00010422 3.2951e-06 0 1.7382e-06 0 2.4451e-05)
(8.4459e-05 2.0401e-06 0 1.2261e-06 0 1.9774e-05)
(8.7818e-05 5.7626e-07 0 1.4218e-06 0 2.0594e-05)
(8.8838e-05 9.7547e-07 0 -1.1182e-08 0 2.0498e-05)
(8.8386e-05 -1.3029e-07 0 1.4887e-07 0 2.0431e-05)
(8.8572e-05 4.3077e-07 0 2.5053e-07 0 2.0498e-05)
(8.7896e-05 2.8533e-07 0 -1.9398e-08 0 2.0279e-05)
(8.6967e-05 2.666e-07 0 1.446e-08 0 2.0073e-05)
(8.5982e-05 3.1719e-07 0 -7.8104e-08 0 1.9824e-05)
(8.4682e-05 3.4516e-07 0 -5.6624e-08 0 1.9529e-05)
(8.3235e-05 3.5076e-07 0 -4.5455e-08 0 1.9198e-05)
(8.1855e-05 2.9784e-07 0 -2.2381e-08 0 1.8884e-05)
(8.0628e-05 1.9618e-07 0 2.8424e-08 0 1.8613e-05)
(7.8981e-05 4.0404e-08 0 9.2922e-08 0 1.8248e-05)
(7.8335e-05 -2.2853e-07 0 9.0076e-08 0 1.8098e-05)
(8.0099e-05 -5.9837e-07 0 -1.1776e-07 0 1.8457e-05)
(8.7583e-05 -5.9971e-07 0 -5.8873e-07 0 2.0076e-05)
(9.5241e-05 4.1228e-07 0 -7.8974e-07 0 2.1796e-05)
(8.1003e-05 1.1424e-06 0 -3.0728e-07 0 1.8622e-05)
(7.6956e-05 9.4017e-07 0 4.4589e-09 0 1.776e-05)
(7.5694e-05 5.8853e-07 0 2.8003e-08 0 1.7474e-05)
(7.4677e-05 3.7146e-07 0 -1.2971e-08 0 1.723e-05)
(7.3511e-05 2.6013e-07 0 -3.5911e-08 0 1.6956e-05)
(7.2727e-05 1.9482e-07 0 -4.9649e-08 0 1.6772e-05)
(7.2073e-05 1.5045e-07 0 -6.0975e-08 0 1.6618e-05)
(7.1569e-05 1.1531e-07 0 -6.8132e-08 0 1.65e-05)
(7.1202e-05 8.5614e-08 0 -7.2634e-08 0 1.6415e-05)
(7.0945e-05 6.045e-08 0 -7.5074e-08 0 1.6355e-05)
(7.0775e-05 3.9143e-08 0 -7.5784e-08 0 1.6315e-05)
(7.0679e-05 2.1158e-08 0 -7.5346e-08 0 1.6293e-05)
(7.0645e-05 6.272e-09 0 -7.4206e-08 0 1.6286e-05)
(7.066e-05 -5.7039e-09 0 -7.2591e-08 0 1.6289e-05)
(7.0716e-05 -1.4844e-08 0 -7.0621e-08 0 1.6303e-05)
(7.0799e-05 -2.1316e-08 0 -6.8292e-08 0 1.6322e-05)
(7.0901e-05 -2.549e-08 0 -6.5633e-08 0 1.6347e-05)
(7.1014e-05 -2.7676e-08 0 -6.2713e-08 0 1.6373e-05)
(7.1132e-05 -2.819e-08 0 -5.9613e-08 0 1.6401e-05)
(7.1249e-05 -2.7286e-08 0 -5.6435e-08 0 1.6429e-05)
(7.1361e-05 -2.5157e-08 0 -5.3224e-08 0 1.6456e-05)
(7.1463e-05 -2.2008e-08 0 -5.0017e-08 0 1.648e-05)
(7.1553e-05 -1.7957e-08 0 -4.686e-08 0 1.6501e-05)
(7.1628e-05 -1.3062e-08 0 -4.371e-08 0 1.6519e-05)
(7.1682e-05 -7.4928e-09 0 -4.0496e-08 0 1.6533e-05)
(7.1715e-05 -1.5082e-09 0 -3.7198e-08 0 1.6541e-05)
(7.1723e-05 4.4638e-09 0 -3.3686e-08 0 1.6544e-05)
(7.1707e-05 9.5735e-09 0 -2.9627e-08 0 1.6541e-05)
(7.1651e-05 1.1919e-08 0 -2.6976e-08 0 1.6529e-05)
(7.1637e-05 1.6278e-08 0 -3.3818e-08 0 1.6524e-05)
(7.1902e-05 4.3762e-08 0 -3.8671e-08 0 1.6584e-05)
(7.1302e-05 6.9097e-08 0 -2.6257e-08 0 1.6448e-05)
(7.1104e-05 7.1366e-08 0 -1.6006e-08 0 1.6405e-05)
(7.0895e-05 7.3562e-08 0 -1.5718e-08 0 1.6357e-05)
(7.064e-05 7.9908e-08 0 -1.5309e-08 0 1.6298e-05)
(7.0354e-05 8.8329e-08 0 -1.3952e-08 0 1.6232e-05)
(7.0037e-05 9.7553e-08 0 -1.2404e-08 0 1.616e-05)
(6.9687e-05 1.0715e-07 0 -1.0871e-08 0 1.6079e-05)
(6.9303e-05 1.1698e-07 0 -9.3699e-09 0 1.5991e-05)
(6.8883e-05 1.2699e-07 0 -7.9149e-09 0 1.5894e-05)
(6.8428e-05 1.3714e-07 0 -6.5208e-09 0 1.579e-05)
(6.7936e-05 1.4743e-07 0 -5.1983e-09 0 1.5676e-05)
(6.7408e-05 1.5785e-07 0 -3.9547e-09 0 1.5555e-05)
(6.6842e-05 1.6839e-07 0 -2.7956e-09 0 1.5424e-05)
(6.6239e-05 1.7905e-07 0 -1.7251e-09 0 1.5285e-05)
(6.5597e-05 1.8983e-07 0 -7.4674e-10 0 1.5138e-05)
(6.4917e-05 2.0072e-07 0 1.3617e-10 0 1.4981e-05)
(6.4198e-05 2.1172e-07 0 9.2014e-10 0 1.4815e-05)
(6.3439e-05 2.2281e-07 0 1.6016e-09 0 1.464e-05)
(6.2641e-05 2.3399e-07 0 2.177e-09 0 1.4456e-05)
(6.1803e-05 2.4524e-07 0 2.6424e-09 0 1.4263e-05)
(6.0925e-05 2.5653e-07 0 2.9941e-09 0 1.406e-05)
(6.0006e-05 2.6785e-07 0 3.2283e-09 0 1.3848e-05)
(5.9046e-05 2.7917e-07 0 3.3414e-09 0 1.3627e-05)
(5.8046e-05 2.9046e-07 0 3.33e-09 0 1.3396e-05)
(5.7006e-05 3.0168e-07 0 3.191e-09 0 1.3156e-05)
(5.5926e-05 3.1282e-07 0 2.9217e-09 0 1.2907e-05)
(5.4806e-05 3.2381e-07 0 2.5197e-09 0 1.2648e-05)
(5.3647e-05 3.3464e-07 0 1.9832e-09 0 1.2381e-05)
(5.2449e-05 3.4524e-07 0 1.3111e-09 0 1.2104e-05)
(5.1214e-05 3.5559e-07 0 5.0273e-10 0 1.1819e-05)
(4.9942e-05 3.6563e-07 0 -4.4186e-10 0 1.1525e-05)
(4.8635e-05 3.7531e-07 0 -1.5218e-09 0 1.1223e-05)
(4.7293e-05 3.8459e-07 0 -2.7357e-09 0 1.0913e-05)
(4.5919e-05 3.9342e-07 0 -4.0812e-09 0 1.0596e-05)
(4.4514e-05 4.0175e-07 0 -5.5551e-09 0 1.0271e-05)
(4.308e-05 4.0952e-07 0 -7.1537e-09 0 9.9398e-06)
(4.1618e-05 4.1669e-07 0 -8.8721e-09 0 9.6022e-06)
(4.0132e-05 4.2321e-07 0 -1.0705e-08 0 9.2588e-06)
(3.8624e-05 4.2902e-07 0 -1.2645e-08 0 8.9102e-06)
(3.7095e-05 4.3409e-07 0 -1.4686e-08 0 8.5571e-06)
(3.555e-05 4.3836e-07 0 -1.682e-08 0 8.1999e-06)
(3.399e-05 4.4179e-07 0 -1.9037e-08 0 7.8396e-06)
(3.242e-05 4.4435e-07 0 -2.1328e-08 0 7.4766e-06)
(3.0842e-05 4.4598e-07 0 -2.3683e-08 0 7.1119e-06)
(2.9259e-05 4.4666e-07 0 -2.6089e-08 0 6.746e-06)
(2.7675e-05 4.4635e-07 0 -2.8535e-08 0 6.38e-06)
(2.6094e-05 4.4502e-07 0 -3.1009e-08 0 6.0146e-06)
(2.452e-05 4.4264e-07 0 -3.3496e-08 0 5.6506e-06)
(2.2955e-05 4.392e-07 0 -3.5983e-08 0 5.289e-06)
(2.1405e-05 4.3467e-07 0 -3.8454e-08 0 4.9306e-06)
(1.9872e-05 4.2904e-07 0 -4.0894e-08 0 4.5764e-06)
(1.8362e-05 4.223e-07 0 -4.3288e-08 0 4.2273e-06)
(1.6877e-05 4.1444e-07 0 -4.5618e-08 0 3.8842e-06)
(1.5422e-05 4.0545e-07 0 -4.7867e-08 0 3.548e-06)
(1.4002e-05 3.9535e-07 0 -5.0019e-08 0 3.2197e-06)
(1.2619e-05 3.8413e-07 0 -5.2053e-08 0 2.9002e-06)
(1.1279e-05 3.7182e-07 0 -5.3952e-08 0 2.5904e-06)
(9.9849e-06 3.5841e-07 0 -5.5697e-08 0 2.2913e-06)
(8.7406e-06 3.4394e-07 0 -5.7267e-08 0 2.0038e-06)
(7.55e-06 3.2843e-07 0 -5.8643e-08 0 1.7288e-06)
(6.417e-06 3.1191e-07 0 -5.9803e-08 0 1.467e-06)
(5.3451e-06 2.9442e-07 0 -6.0727e-08 0 1.2195e-06)
(4.3378e-06 2.76e-07 0 -6.1392e-08 0 9.8686e-07)
(3.3984e-06 2.567e-07 0 -6.1776e-08 0 7.6998e-07)
(2.53e-06 2.3658e-07 0 -6.1858e-08 0 5.6957e-07)
(1.7355e-06 2.157e-07 0 -6.1614e-08 0 3.8629e-07)
(1.0177e-06 1.9416e-07 0 -6.1021e-08 0 2.2077e-07)
(3.788e-07 1.7204e-07 0 -6.0056e-08 0 7.3557e-08)
(-1.7913e-07 1.4944e-07 0 -5.8696e-08 0 -5.4884e-08)
(-6.5452e-07 1.265e-07 0 -5.6921e-08 0 -1.6418e-07)
(-1.0462e-06 1.0337e-07 0 -5.4711e-08 0 -2.5406e-07)
(-1.3538e-06 8.0232e-08 0 -5.2048e-08 0 -3.2442e-07)
(-1.5773e-06 5.7299e-08 0 -4.8921e-08 0 -3.7528e-07)
(-1.7179e-06 3.4837e-08 0 -4.5325e-08 0 -4.0689e-07)
(-1.7776e-06 1.3171e-08 0 -4.127e-08 0 -4.1973e-07)
(-1.7598e-06 -7.2952e-09 0 -3.6783e-08 0 -4.146e-07)
(-1.6697e-06 -2.6058e-08 0 -3.1925e-08 0 -3.9268e-07)
(-1.5144e-06 -4.2476e-08 0 -2.6815e-08 0 -3.5567e-07)
(-1.304e-06 -5.5728e-08 0 -2.1672e-08 0 -3.0592e-07)
(-1.052e-06 -6.476e-08 0 -1.6895e-08 0 -2.4666e-07)
(-7.769e-07 -6.8264e-08 0 -1.3195e-08 0 -1.8233e-07)
(-5.0314e-07 -6.4796e-08 0 -1.169e-08 0 -1.1881e-07)
(-2.6178e-07 -5.3341e-08 0 -1.3504e-08 0 -6.3528e-08)
(-8.8476e-08 -3.487e-08 0 -1.7022e-08 0 -2.4346e-08)
(-7.0686e-09 -1.4566e-08 0 -6.9564e-09 0 -3.2365e-09)
(34694 8442 0 5131.8 0 9190.6)
(35651 5496.6 0 1581 0 8592.1)
(33719 3666.3 0 584.79 0 7916.3)
(31730 2605.3 0 348.77 0 7402.7)
(30133 2008.2 0 266.09 0 7015.1)
(28855 1645.7 0 206.48 0 6706.4)
(27791 1402.9 0 156.74 0 6449.5)
(26875 1228.7 0 118.11 0 6229.1)
(26065 1098.7 0 89.747 0 6035.6)
(25335 999.26 0 69.428 0 5862.6)
(24668 921.37 0 54.935 0 5705.3)
(24051 859.01 0 44.553 0 5560.5)
(23475 807.9 0 37.067 0 5425.8)
(22932 765 0 31.636 0 5299.3)
(22418 728.12 0 27.68 0 5179.7)
(21929 695.67 0 24.79 0 5066.2)
(21461 666.49 0 22.678 0 4957.9)
(21014 639.72 0 21.136 0 4854.3)
(20585 614.73 0 20.015 0 4755)
(20173 591.06 0 19.204 0 4659.7)
(19777 568.35 0 18.624 0 4568.2)
(19397 546.33 0 18.216 0 4480.3)
(19031 524.82 0 17.936 0 4395.9)
(18680 503.66 0 17.751 0 4315)
(18344 482.74 0 17.638 0 4237.3)
(18022 461.98 0 17.579 0 4162.9)
(17714 441.32 0 17.558 0 4091.8)
(17420 420.7 0 17.565 0 4023.9)
(17139 400.1 0 17.591 0 3959.3)
(16873 379.5 0 17.627 0 3897.8)
(16620 358.88 0 17.666 0 3839.5)
(16382 338.24 0 17.699 0 3784.5)
(16157 317.6 0 17.719 0 3732.6)
(15946 296.98 0 17.717 0 3683.9)
(15748 276.4 0 17.683 0 3638.3)
(15565 255.91 0 17.607 0 3595.9)
(15395 235.56 0 17.475 0 3556.7)
(15238 215.42 0 17.276 0 3520.5)
(15095 195.59 0 16.992 0 3487.3)
(14965 176.16 0 16.609 0 3457.2)
(14847 157.27 0 16.108 0 3430)
(14742 139.04 0 15.471 0 3405.5)
(14648 121.64 0 14.682 0 3383.8)
(14566 105.26 0 13.722 0 3364.6)
(14494 90.084 0 12.581 0 3347.7)
(14432 76.316 0 11.248 0 3333.1)
(14379 64.166 0 9.7245 0 3320.4)
(14333 53.835 0 8.0175 0 3309.4)
(14293 45.509 0 6.1478 0 3299.8)
(14258 39.34 0 4.1492 0 3291.3)
(14227 35.437 0 2.0698 0 3283.7)
(14198 33.85 0 -0.028292 0 3276.6)
(14170 34.552 0 -2.0711 0 3269.6)
(14142 37.435 0 -3.9771 0 3262.5)
(14111 42.304 0 -5.6629 0 3255)
(14077 48.876 0 -7.0509 0 3246.9)
(14039 56.797 0 -8.0771 0 3237.9)
(13996 65.654 0 -8.6986 0 3227.8)
(13948 75.004 0 -8.8995 0 3216.6)
(13894 84.403 0 -8.694 0 3204.2)
(13834 93.437 0 -8.1251 0 3190.7)
(13770 101.75 0 -7.2606 0 3176)
(13701 109.06 0 -6.1853 0 3160.2)
(13627 115.19 0 -4.9917 0 3143.6)
(13550 120.05 0 -3.7699 0 3126.1)
(13471 123.64 0 -2.5993 0 3108.1)
(13390 126.04 0 -1.5421 0 3089.6)
(13307 127.39 0 -0.64042 0 3070.7)
(13224 127.84 0 0.084369 0 3051.7)
(13141 127.59 0 0.62903 0 3032.6)
(13058 126.82 0 1.0048 0 3013.6)
(12975 125.7 0 1.2329 0 2994.6)
(12893 124.37 0 1.34 0 2975.7)
(12812 122.94 0 1.3547 0 2957)
(12732 121.52 0 1.3048 0 2938.5)
(12653 120.14 0 1.2151 0 2920.2)
(12574 118.86 0 1.1074 0 2902)
(12497 117.67 0 1.0001 0 2884.1)
(12420 116.57 0 0.90826 0 2866.3)
(12343 115.55 0 0.84463 0 2848.6)
(12268 114.56 0 0.81957 0 2831.2)
(12193 113.57 0 0.84157 0 2813.9)
(12118 112.51 0 0.91816 0 2796.7)
(12045 111.32 0 1.056 0 2779.8)
(11972 109.93 0 1.26 0 2763.1)
(11900 108.28 0 1.5338 0 2746.6)
(11830 106.28 0 1.8794 0 2730.4)
(11761 103.86 0 2.2936 0 2714.6)
(11694 100.96 0 2.767 0 2699.2)
(11628 97.52 0 3.2859 0 2684.3)
(11566 93.509 0 3.8301 0 2669.9)
(11505 88.918 0 4.3699 0 2656.1)
(11448 83.775 0 4.8709 0 2643)
(11395 78.149 0 5.2953 0 2630.7)
(11344 72.15 0 5.5958 0 2619.2)
(11298 65.934 0 5.7295 0 2608.6)
(11256 59.696 0 5.6673 0 2598.7)
(11217 53.659 0 5.3847 0 2589.8)
(11182 48.06 0 4.8725 0 2581.5)
(11150 43.131 0 4.1503 0 2574)
(11121 39.075 0 3.2512 0 2567.1)
(11094 36.05 0 2.2227 0 2560.7)
(11069 34.15 0 1.1354 0 2554.6)
(11044 33.402 0 0.061623 0 2548.7)
(11020 33.754 0 -0.92768 0 2542.9)
(10995 35.08 0 -1.7576 0 2537)
(10970 37.176 0 -2.3703 0 2531)
(10943 39.794 0 -2.7312 0 2524.6)
(10914 42.658 0 -2.8236 0 2518)
(10884 45.484 0 -2.6507 0 2511.1)
(10852 48.001 0 -2.2343 0 2503.9)
(10819 49.969 0 -1.6119 0 2496.4)
(10785 51.194 0 -0.83264 0 2488.8)
(10751 51.536 0 0.046764 0 2481)
(10717 50.92 0 0.96642 0 2473.4)
(10683 49.331 0 1.8669 0 2465.9)
(10651 46.818 0 2.6929 0 2458.6)
(10621 43.484 0 3.3964 0 2451.8)
(10593 39.478 0 3.94 0 2445.4)
(10567 34.983 0 4.2986 0 2439.6)
(10545 30.2 0 4.4615 0 2434.5)
(10525 25.335 0 4.4325 0 2429.9)
(10509 20.586 0 4.2287 0 2426.1)
(10495 16.124 0 3.8783 0 2422.8)
(10484 12.089 0 3.4172 0 2420.1)
(10475 8.5823 0 2.8841 0 2418)
(10468 5.6633 0 2.317 0 2416.3)
(10463 3.355 0 1.7491 0 2415)
(10460 1.648 0 1.2066 0 2414)
(10457 0.50841 0 0.70778 0 2413.3)
(10454 -0.11406 0 0.26357 0 2412.6)
(10453 -0.27965 0 -0.12085 0 2412.1)
(10451 -0.053589 0 -0.44375 0 2411.6)
(10449 0.4966 0 -0.70464 0 2411.1)
(10446 1.3018 0 -0.90262 0 2410.5)
(10443 2.2909 0 -1.0357 0 2409.8)
(10440 3.3899 0 -1.1008 0 2408.9)
(10436 4.5221 0 -1.0951 0 2408)
(10431 5.6083 0 -1.017 0 2406.9)
(10426 6.5701 0 -0.86779 0 2405.7)
(10420 7.3323 0 -0.65241 0 2404.4)
(10414 7.8274 0 -0.37966 0 2403.1)
(10407 7.9991 0 -0.06171 0 2401.7)
(10401 7.805 0 0.28716 0 2400.3)
(10395 7.2184 0 0.65216 0 2399.1)
(10390 6.2273 0 1.0197 0 2397.9)
(10385 4.8332 0 1.3788 0 2397)
(10382 3.0477 0 1.7218 0 2396.2)
(10380 0.8889 0 2.0448 0 2395.8)
(10379 -1.6215 0 2.3467 0 2395.7)
(10380 -4.4606 0 2.6278 0 2396)
(10383 -7.6053 0 2.8888 0 2396.8)
(10388 -11.031 0 3.1284 0 2398)
(10396 -14.709 0 3.3424 0 2399.8)
(10406 -18.605 0 3.5225 0 2402.1)
(10418 -22.672 0 3.6564 0 2405)
(10433 -26.847 0 3.7284 0 2408.5)
(10451 -31.053 0 3.7205 0 2412.6)
(10471 -35.19 0 3.6146 0 2417.3)
(10495 -39.144 0 3.3948 0 2422.6)
(10520 -42.786 0 3.0498 0 2428.4)
(10548 -45.979 0 2.5758 0 2434.8)
(10578 -48.59 0 1.9783 0 2441.5)
(10609 -50.498 0 1.2742 0 2448.5)
(10641 -51.607 0 0.49267 0 2455.8)
(10674 -51.859 0 -0.32556 0 2463.2)
(10707 -51.244 0 -1.1295 0 2470.7)
(10740 -49.809 0 -1.8616 0 2478)
(10772 -47.663 0 -2.4631 0 2485.2)
(10802 -44.973 0 -2.8799 0 2492.1)
(10831 -41.955 0 -3.0705 0 2498.7)
(10858 -38.857 0 -3.0121 0 2505)
(10883 -35.941 0 -2.7058 0 2510.9)
(10907 -33.45 0 -2.179 0 2516.5)
(10930 -31.588 0 -1.4834 0 2521.9)
(10952 -30.495 0 -0.68988 0 2527.1)
(10973 -30.234 0 0.12068 0 2532.3)
(10995 -30.783 0 0.86796 0 2537.5)
(11017 -32.045 0 1.4833 0 2542.7)
(11040 -33.862 0 1.919 0 2548.2)
(11065 -36.039 0 2.154 0 2553.9)
(11091 -38.375 0 2.1959 0 2559.9)
(11118 -40.688 0 2.0782 0 2566.1)
(11146 -42.839 0 1.8543 0 2572.7)
(11176 -44.747 0 1.5879 0 2579.5)
(11207 -46.398 0 1.3433 0 2586.6)
(11239 -47.833 0 1.1742 0 2594)
(11272 -49.14 0 1.1146 0 2601.5)
(11306 -50.424 0 1.1709 0 2609.3)
(11340 -51.78 0 1.3177 0 2617.2)
(11375 -53.26 0 1.4983 0 2625.4)
(11411 -54.844 0 1.6296 0 2633.7)
(11448 -56.423 0 1.613 0 2642.3)
(11486 -57.786 0 1.3506 0 2650.9)
(11524 -58.636 0 0.76271 0 2659.5)
(11562 -58.617 0 -0.19242 0 2668.1)
(11600 -57.361 0 -1.5046 0 2676.5)
(11636 -54.544 0 -3.104 0 2684.4)
(11669 -49.946 0 -4.8648 0 2691.8)
(11699 -43.5 0 -6.6188 0 2698.3)
(11725 -35.322 0 -8.1789 0 2703.9)
(11745 -25.713 0 -9.3677 0 2708.2)
(11758 -15.142 0 -10.045 0 2711.2)
(11765 -4.1906 0 -10.127 0 2712.7)
(11766 6.5063 0 -9.5979 0 2712.9)
(11760 16.329 0 -8.5062 0 2711.8)
(11748 24.729 0 -6.949 0 2709.4)
(11732 31.275 0 -5.0523 0 2706.1)
(11712 35.664 0 -2.9482 0 2702.1)
(11690 37.726 0 -0.75611 0 2697.6)
(11668 37.405 0 1.4293 0 2692.9)
(11647 34.732 0 3.542 0 2688.5)
(11627 29.797 0 5.5419 0 2684.5)
(11612 22.729 0 7.4076 0 2681.4)
(11601 13.68 0 9.1267 0 2679.4)
(11597 2.8199 0 10.688 0 2678.7)
(11600 -9.6623 0 12.074 0 2679.6)
(11610 -23.553 0 13.261 0 2682.4)
(11630 -38.607 0 14.217 0 2687.2)
(11659 -54.539 0 14.905 0 2694)
(11698 -71.025 0 15.286 0 2703.1)
(11747 -87.696 0 15.32 0 2714.5)
(11807 -104.14 0 14.97 0 2728)
(11875 -119.92 0 14.202 0 2743.8)
(11954 -134.54 0 12.986 0 2761.5)
(12040 -147.5 0 11.297 0 2781)
(12133 -158.27 0 9.1226 0 2802)
(12232 -166.33 0 6.4633 0 2824.2)
(12334 -171.15 0 3.3434 0 2847)
(12437 -172.27 0 -0.18523 0 2870.1)
(12540 -169.3 0 -4.0396 0 2892.9)
(12638 -161.95 0 -8.108 0 2914.7)
(12731 -150.05 0 -12.256 0 2935)
(12813 -133.62 0 -16.339 0 2953.1)
(12884 -112.78 0 -20.213 0 2968.5)
(12939 -87.832 0 -23.753 0 2980.5)
(12978 -59.181 0 -26.862 0 2988.6)
(12996 -27.319 0 -29.479 0 2992.3)
(12994 7.2183 0 -31.584 0 2991.2)
(12968 43.891 0 -33.195 0 2985)
(12918 82.194 0 -34.365 0 2973.2)
(12843 121.69 0 -35.168 0 2955.7)
(12743 162.02 0 -35.696 0 2932.3)
(12615 202.94 0 -36.047 0 2902.9)
(12462 244.29 0 -36.318 0 2867.4)
(12281 286.01 0 -36.597 0 2825.6)
(12073 328.16 0 -36.965 0 2777.5)
(11837 370.83 0 -37.488 0 2723)
(11574 414.22 0 -38.225 0 2662)
(11282 458.56 0 -39.23 0 2594.4)
(10960 504.17 0 -40.569 0 2520)
(10610 551.43 0 -42.33 0 2438.6)
(10228 600.81 0 -44.638 0 2350)
(9814.3 652.93 0 -47.684 0 2253.8)
(9367.5 708.56 0 -51.783 0 2149.8)
(8885.9 768.74 0 -57.444 0 2037.3)
(8367.6 834.86 0 -65.378 0 1915.9)
(7811.6 908.79 0 -76.275 0 1785.1)
(7217.1 992.93 0 -89.943 0 1644.7)
(6587.1 1090.7 0 -103.1 0 1496.3)
(5930.2 1207.8 0 -104.87 0 1344.3)
(5286.8 1356.4 0 -69.523 0 1204)
(4767.1 1554.4 0 47.827 0 1111.1)
(4281.9 1731.7 0 215.07 0 1037.8)
(3234.4 1477.8 0 352.76 0 827.8)
(553.32 159.35 0 70.586 0 143.98)
(1.5009 0.26099 0 0.1036 0 0.37028)
(0.0041791 0.00061293 0 9.8402e-05 0 0.00098712)
(0.00010336 8.2576e-06 0 3.279e-06 0 2.4609e-05)
(8.4331e-05 5.0505e-06 0 2.4425e-06 0 2.0025e-05)
(8.4342e-05 -3.3086e-07 0 6.6431e-07 0 1.9617e-05)
(9.0144e-05 3.3805e-06 0 1.4326e-06 0 2.1133e-05)
(8.7151e-05 9.9951e-07 0 5.128e-08 0 2.0124e-05)
(8.6689e-05 1.5404e-06 0 1.108e-07 0 2.0031e-05)
(8.5826e-05 1.458e-06 0 -4.3743e-07 0 1.9705e-05)
(8.4957e-05 1.5718e-06 0 -1.3185e-07 0 1.9575e-05)
(8.4165e-05 1.6086e-06 0 7.7821e-08 0 1.9441e-05)
(8.3397e-05 1.3905e-06 0 4.4037e-07 0 1.9347e-05)
(8.2469e-05 1.0053e-06 0 7.2389e-07 0 1.9198e-05)
(8.1294e-05 6.0784e-07 0 7.5778e-07 0 1.8935e-05)
(8.0886e-05 2.2216e-08 0 3.2456e-07 0 1.8741e-05)
(8.212e-05 -6.8937e-07 0 -5.7134e-07 0 1.8819e-05)
(8.179e-05 -3.033e-07 0 -1.2206e-06 0 1.8593e-05)
(7.7715e-05 1.5436e-06 0 -7.7176e-07 0 1.7756e-05)
(7.3447e-05 2.7797e-06 0 2.912e-10 0 1.6949e-05)
(7.4998e-05 2.6223e-06 0 3.5716e-07 0 1.739e-05)
(7.5556e-05 2.0538e-06 0 3.2547e-07 0 1.7511e-05)
(7.5169e-05 1.5692e-06 0 2.7331e-07 0 1.741e-05)
(7.4481e-05 1.2115e-06 0 2.4064e-07 0 1.7244e-05)
(7.3887e-05 9.3935e-07 0 2.0592e-07 0 1.7098e-05)
(7.3363e-05 7.3054e-07 0 1.7039e-07 0 1.6969e-05)
(7.2944e-05 5.6222e-07 0 1.4125e-07 0 1.6866e-05)
(7.262e-05 4.2216e-07 0 1.1739e-07 0 1.6786e-05)
(7.2375e-05 3.0403e-07 0 9.8008e-08 0 1.6724e-05)
(7.2195e-05 2.037e-07 0 8.2234e-08 0 1.6679e-05)
(7.2071e-05 1.1867e-07 0 6.872e-08 0 1.6648e-05)
(7.1995e-05 4.7794e-08 0 5.6329e-08 0 1.6627e-05)
(7.1959e-05 -9.5839e-09 0 4.4558e-08 0 1.6616e-05)
(7.1955e-05 -5.3889e-08 0 3.3362e-08 0 1.6613e-05)
(7.1974e-05 -8.587e-08 0 2.2895e-08 0 1.6615e-05)
(7.2012e-05 -1.0671e-07 0 1.3417e-08 0 1.6621e-05)
(7.206e-05 -1.177e-07 0 5.1723e-09 0 1.663e-05)
(7.2113e-05 -1.2023e-07 0 -1.7828e-09 0 1.6641e-05)
(7.2166e-05 -1.1557e-07 0 -7.5616e-09 0 1.6652e-05)
(7.2213e-05 -1.0482e-07 0 -1.2292e-08 0 1.6662e-05)
(7.2252e-05 -8.9002e-08 0 -1.6132e-08 0 1.667e-05)
(7.2279e-05 -6.8893e-08 0 -1.9236e-08 0 1.6675e-05)
(7.2291e-05 -4.5067e-08 0 -2.1701e-08 0 1.6678e-05)
(7.2287e-05 -1.8092e-08 0 -2.3749e-08 0 1.6676e-05)
(7.2263e-05 1.167e-08 0 -2.5848e-08 0 1.667e-05)
(7.2215e-05 4.4075e-08 0 -2.8285e-08 0 1.6659e-05)
(7.2134e-05 7.8678e-08 0 -3.172e-08 0 1.6639e-05)
(7.2021e-05 1.1098e-07 0 -3.8944e-08 0 1.6611e-05)
(7.1879e-05 1.4789e-07 0 -5.1355e-08 0 1.6576e-05)
(7.1699e-05 2.258e-07 0 -5.4087e-08 0 1.6534e-05)
(7.1492e-05 3.0011e-07 0 -4.1503e-08 0 1.6488e-05)
(7.1349e-05 3.3558e-07 0 -3.3613e-08 0 1.6457e-05)
(7.1129e-05 3.7199e-07 0 -3.5572e-08 0 1.6406e-05)
(7.0855e-05 4.1377e-07 0 -3.7903e-08 0 1.6342e-05)
(7.0541e-05 4.5874e-07 0 -3.9433e-08 0 1.627e-05)
(7.0195e-05 5.0575e-07 0 -4.0588e-08 0 1.6189e-05)
(6.9815e-05 5.5419e-07 0 -4.1537e-08 0 1.6101e-05)
(6.9401e-05 6.0365e-07 0 -4.2323e-08 0 1.6006e-05)
(6.8953e-05 6.5394e-07 0 -4.2992e-08 0 1.5902e-05)
(6.8471e-05 7.0494e-07 0 -4.3588e-08 0 1.5791e-05)
(6.7954e-05 7.566e-07 0 -4.4142e-08 0 1.5671e-05)
(6.7401e-05 8.0889e-07 0 -4.4675e-08 0 1.5544e-05)
(6.6813e-05 8.6178e-07 0 -4.5198e-08 0 1.5408e-05)
(6.6189e-05 9.1525e-07 0 -4.5711e-08 0 1.5264e-05)
(6.5528e-05 9.6929e-07 0 -4.6212e-08 0 1.5111e-05)
(6.4831e-05 1.0239e-06 0 -4.6692e-08 0 1.495e-05)
(6.4096e-05 1.079e-06 0 -4.7139e-08 0 1.4781e-05)
(6.3324e-05 1.1345e-06 0 -4.7541e-08 0 1.4602e-05)
(6.2515e-05 1.1904e-06 0 -4.7883e-08 0 1.4415e-05)
(6.1667e-05 1.2467e-06 0 -4.815e-08 0 1.422e-05)
(6.0782e-05 1.3031e-06 0 -4.8328e-08 0 1.4015e-05)
(5.9858e-05 1.3597e-06 0 -4.8403e-08 0 1.3802e-05)
(5.8897e-05 1.4162e-06 0 -4.8359e-08 0 1.358e-05)
(5.7897e-05 1.4726e-06 0 -4.8183e-08 0 1.335e-05)
(5.686e-05 1.5286e-06 0 -4.7863e-08 0 1.3111e-05)
(5.5786e-05 1.5841e-06 0 -4.7387e-08 0 1.2863e-05)
(5.4674e-05 1.6389e-06 0 -4.6743e-08 0 1.2606e-05)
(5.3526e-05 1.6928e-06 0 -4.5923e-08 0 1.2342e-05)
(5.2343e-05 1.7455e-06 0 -4.4916e-08 0 1.2069e-05)
(5.1125e-05 1.797e-06 0 -4.3716e-08 0 1.1788e-05)
(4.9873e-05 1.8469e-06 0 -4.2314e-08 0 1.1499e-05)
(4.8588e-05 1.895e-06 0 -4.0706e-08 0 1.1203e-05)
(4.7272e-05 1.9411e-06 0 -3.8887e-08 0 1.09e-05)
(4.5926e-05 1.9849e-06 0 -3.6854e-08 0 1.059e-05)
(4.4552e-05 2.0261e-06 0 -3.4605e-08 0 1.0273e-05)
(4.3152e-05 2.0646e-06 0 -3.2141e-08 0 9.9507e-06)
(4.1727e-05 2.1001e-06 0 -2.9462e-08 0 9.6225e-06)
(4.028e-05 2.1323e-06 0 -2.6571e-08 0 9.2893e-06)
(3.8813e-05 2.161e-06 0 -2.3474e-08 0 8.9514e-06)
(3.7328e-05 2.1859e-06 0 -2.0175e-08 0 8.6096e-06)
(3.5829e-05 2.2069e-06 0 -1.6683e-08 0 8.2644e-06)