/*--------------------------------*- C++ -*----------------------------------*\
| =========                 |                                                 |
| \\      /  F ield         | OpenFOAM: The Open Source CFD Toolbox           |
|  \\    /   O peration     | Version:  5.x                                   |
|   \\  /    A nd           | Web:      www.OpenFOAM.org                      |
|    \\/     M anipulation  |                                                 |
\*---------------------------------------------------------------------------*/
FoamFile
{
    version     2.0;
    format      ascii;
    class       volScalarField;
    location    "135";
    object      gamma;
}
// * * * * * * * * * * * * * * * * * * * * * * * * * * * * * * * * * * * * * //

dimensions      [0 0 0 0 0 0 0];

internalField   nonuniform List<scalar> 
86400
(
9.692e-07
1.287e-06
2.081e-06
4.403e-06
9.946e-06
1.708e-05
1.968e-05
2.334e-05
2.888e-05
2.943e-05
2.892e-05
2.061e-05
1.33e-05
6.98e-06
1.149e-05
3.05e-05
0.0001696
0.0003862
0.000729
0.0005785
0.0006201
0.0007783
0.001374
0.001446
0.001634
0.002544
0.0032
0.004149
0.00461
0.004999
0.004734
0.004748
0.004647
0.004473
0.004479
0.005136
0.005081
0.004767
0.003816
0.003538
0.003234
0.003441
0.003112
0.002528
0.002413
0.002719
0.003573
0.004248
0.004748
0.004471
0.004535
0.004762
0.004984
0.00508
0.005118
0.005602
0.006342
0.006844
0.007025
0.006854
0.006024
0.005935
0.005481
0.005518
0.006369
0.007773
0.009055
0.009537
0.007877
0.007011
0.007681
0.00921
0.01152
0.0105
0.009117
0.007393
0.005737
0.005326
0.005975
0.006671
0.008426
0.009352
0.008907
0.00819
0.007905
0.007206
0.007512
0.007559
0.008187
0.008799
0.008375
0.009315
0.01056
0.0136
0.0151
0.01616
0.01448
0.01435
0.01452
0.01422
0.0135
0.01403
0.0127
0.01086
0.007268
0.006737
0.007389
0.01108
0.01245
0.01283
0.01032
0.009221
0.007901
0.006189
0.004187
0.003131
0.002732
0.002618
0.002421
0.002294
0.002353
0.002438
0.002765
0.002915
0.002788
0.002633
0.00245
0.002311
0.002104
0.001777
0.001275
0.001039
0.0009185
0.000856
0.00082
0.0008694
0.0009953
0.001184
0.000634
0.0001823
5.748e-05
4.854e-05
6.289e-05
7.393e-05
4.59e-05
1.359e-05
3.826e-06
1.816e-06
2.048e-06
2.997e-06
9.062e-06
2.628e-05
8.75e-05
0.0001579
0.0003025
0.0005622
0.0007813
0.00101
0.04293
0.9754
1.28e-06
1.516e-06
2.297e-06
3.986e-06
7.793e-06
1.185e-05
1.273e-05
1.414e-05
1.53e-05
1.098e-05
9.942e-06
8.922e-06
8.868e-06
1.02e-05
2.077e-05
4.919e-05
0.0001628
0.0003935
0.0008175
0.0009893
0.001393
0.00229
0.003935
0.004648
0.005119
0.005533
0.004846
0.004216
0.003675
0.003252
0.002948
0.003372
0.00397
0.004667
0.005441
0.006565
0.006856
0.007145
0.006638
0.006426
0.005731
0.005633
0.005194
0.004558
0.004383
0.00496
0.005866
0.006882
0.00792
0.008238
0.009036
0.01019
0.01135
0.01222
0.01227
0.01091
0.00926
0.007986
0.007055
0.006721
0.006451
0.006625
0.00608
0.006197
0.007247
0.01004
0.01206
0.0131
0.01145
0.01089
0.01211
0.01254
0.01131
0.008473
0.006516
0.005977
0.007212
0.009308
0.01111
0.01176
0.01333
0.01442
0.01575
0.01627
0.01665
0.01579
0.01661
0.01697
0.01949
0.02277
0.02423
0.02705
0.02816
0.02761
0.0254
0.02348
0.02057
0.01778
0.01448
0.01314
0.01308
0.01594
0.02003
0.01805
0.01034
0.007862
0.007722
0.009652
0.01282
0.01447
0.01141
0.01081
0.01122
0.01136
0.01013
0.008475
0.007239
0.006753
0.006231
0.005849
0.005666
0.005208
0.005053
0.004878
0.004646
0.004861
0.004953
0.005021
0.004527
0.003665
0.002501
0.002037
0.001804
0.002029
0.002278
0.002235
0.002107
0.001891
0.001009
0.0003678
0.0002031
0.0001458
0.0001135
8.424e-05
4.819e-05
1.933e-05
1.111e-05
1.228e-05
2.577e-05
4.696e-05
8.514e-05
0.0001853
0.0004418
0.0008718
0.002448
0.008699
0.02747
0.1592
0.7554
0.9878
2.155e-06
2.423e-06
3.113e-06
4.179e-06
6.979e-06
9.13e-06
9.026e-06
9.61e-06
9.121e-06
6.729e-06
6.785e-06
8.682e-06
1.163e-05
1.92e-05
4.077e-05
0.0001185
0.0003456
0.0009502
0.001648
0.002273
0.002572
0.004156
0.006152
0.007212
0.008676
0.01089
0.0104
0.009016
0.007492
0.005753
0.00525
0.006711
0.008015
0.008612
0.008276
0.00806
0.007461
0.007739
0.007296
0.006569
0.005211
0.004837
0.004461
0.004709
0.005655
0.007534
0.009374
0.01164
0.01434
0.01328
0.01104
0.008882
0.007393
0.006842
0.007468
0.006871
0.006202
0.005519
0.005189
0.00519
0.005579
0.006203
0.006213
0.007297
0.007993
0.009049
0.009855
0.01033
0.00941
0.009303
0.009812
0.00835
0.006676
0.005878
0.006055
0.008988
0.01494
0.0209
0.02327
0.02411
0.0254
0.02707
0.02995
0.03213
0.03533
0.03451
0.03379
0.03152
0.02435
0.01699
0.01089
0.00748
0.007002
0.009001
0.01116
0.01339
0.01474
0.01177
0.009211
0.008608
0.008905
0.01091
0.01425
0.01205
0.007242
0.006299
0.00767
0.01126
0.01783
0.01924
0.01631
0.01826
0.02125
0.02259
0.01961
0.01611
0.01237
0.01063
0.009178
0.008468
0.007446
0.007031
0.006543
0.005961
0.005384
0.005469
0.005382
0.005432
0.00493
0.004113
0.003036
0.002558
0.002262
0.002671
0.003159
0.002894
0.002456
0.001895
0.001079
0.0004963
0.0003448
0.0002629
0.000236
0.0001989
0.0001419
8.235e-05
5.394e-05
6.843e-05
0.0001452
0.0003255
0.0006222
0.001132
0.002319
0.005224
0.01728
0.07814
0.2936
0.8542
0.9788
0.999
4.039e-06
4.115e-06
4.384e-06
4.614e-06
6.018e-06
6.116e-06
5.205e-06
5.164e-06
5.145e-06
4.804e-06
6.45e-06
6.479e-06
6.809e-06
1.354e-05
3.875e-05
0.0001014
0.0003
0.0005648
0.0004323
0.0004096
0.0003979
0.0004932
0.0008605
0.001318
0.002019
0.003511
0.004811
0.005222
0.00533
0.004838
0.004711
0.007053
0.009814
0.01168
0.01086
0.009643
0.0084
0.009028
0.008957
0.008141
0.006603
0.00666
0.007585
0.01028
0.01162
0.01176
0.009545
0.008331
0.008458
0.00751
0.005505
0.004299
0.003966
0.003743
0.004267
0.003698
0.0029
0.002551
0.002983
0.003836
0.004949
0.006275
0.007113
0.008395
0.008651
0.008655
0.008029
0.007462
0.006527
0.008143
0.01062
0.009512
0.008674
0.008973
0.008702
0.01425
0.02313
0.02784
0.02485
0.0256
0.0212
0.01712
0.01403
0.01086
0.008932
0.008456
0.007789
0.007115
0.005977
0.005205
0.004425
0.0037
0.004158
0.005599
0.007181
0.008738
0.01058
0.007993
0.006178
0.005783
0.006371
0.00838
0.0124
0.01162
0.007171
0.004883
0.004637
0.006435
0.009367
0.01056
0.009322
0.009712
0.009459
0.01279
0.01454
0.01689
0.0165
0.01787
0.01549
0.01479
0.0122
0.01154
0.009985
0.008747
0.007801
0.007971
0.008275
0.008732
0.008501
0.007561
0.005905
0.005232
0.004972
0.005306
0.00517
0.003657
0.002317
0.001242
0.0009201
0.0006277
0.0005876
0.0004853
0.0004547
0.0003872
0.000343
0.0003033
0.0003191
0.0007093
0.001978
0.003904
0.006294
0.01003
0.01739
0.04577
0.13
0.5757
0.8831
0.9918
0.9997
1
9.229e-06
7.83e-06
6.964e-06
6.251e-06
5.929e-06
5.12e-06
3.612e-06
3.413e-06
3.971e-06
4.421e-06
7.171e-06
5.294e-06
2.554e-06
4.253e-06
1.742e-05
7.371e-05
0.0004638
0.0004821
0.0001733
8.952e-05
9.263e-05
0.0001165
0.0002256
0.0002642
0.0004328
0.00114
0.003427
0.007849
0.01297
0.009611
0.00589
0.005556
0.005121
0.004813
0.004555
0.003986
0.003152
0.00409
0.006025
0.007981
0.006307
0.004108
0.002382
0.002045
0.001705
0.001543
0.001407
0.001762
0.002879
0.00402
0.003496
0.002435
0.002709
0.003141
0.003885
0.003194
0.0022
0.002075
0.0028
0.004556
0.007302
0.01094
0.01461
0.01721
0.01468
0.009896
0.007316
0.005448
0.003886
0.003888
0.004895
0.004419
0.005605
0.00823
0.009241
0.01029
0.01145
0.008888
0.006285
0.006166
0.004225
0.002647
0.001994
0.001705
0.001773
0.002488
0.002958
0.002726
0.002376
0.002221
0.001782
0.00171
0.002316
0.003365
0.005527
0.006995
0.008397
0.00634
0.005333
0.004147
0.002639
0.002029
0.002794
0.003675
0.004467
0.005477
0.006014
0.007521
0.009003
0.008903
0.006687
0.005954
0.005042
0.007863
0.008275
0.008935
0.007775
0.00793
0.005939
0.0064
0.005785
0.005826
0.005253
0.004562
0.004059
0.003945
0.003919
0.004419
0.005003
0.005347
0.005246
0.005015
0.00461
0.004124
0.003418
0.002104
0.001221
0.000781
0.0006549
0.0005136
0.0005653
0.0005816
0.0007612
0.001019
0.001319
0.001483
0.001632
0.00241
0.005467
0.01067
0.02043
0.0479
0.1122
0.3254
0.7536
0.946
0.9933
0.9997
1
1
1.498e-05
1.138e-05
9.569e-06
8.257e-06
6.069e-06
4.435e-06
3.352e-06
3.269e-06
4.747e-06
7.352e-06
1.545e-05
7.866e-06
2.302e-06
1.997e-06
1.326e-05
5.103e-05
0.000333
0.0002625
8.601e-05
3.937e-05
6.668e-05
9.693e-05
0.0001878
0.0001171
0.0001116
0.0001828
0.0004335
0.001471
0.004057
0.003563
0.001982
0.001433
0.001171
0.001129
0.001508
0.001583
0.001002
0.0009753
0.001259
0.001099
0.0005114
0.0002537
8.296e-05
4.09e-05
2.694e-05
1.496e-05
7.309e-06
9.72e-06
2.453e-05
6.275e-05
9.601e-05
0.0001368
0.0002597
0.0007004
0.001292
0.00109
0.0005648
0.0004562
0.0006645
0.00164
0.003625
0.006222
0.007268
0.008538
0.007711
0.005256
0.005473
0.004561
0.003078
0.002701
0.003514
0.003142
0.004296
0.005345
0.003911
0.002308
0.001325
0.0009177
0.000934
0.001486
0.001642
0.001353
0.0009579
0.0008784
0.001046
0.001774
0.00267
0.002775
0.002978
0.003311
0.003743
0.003199
0.003414
0.003528
0.003711
0.004204
0.004446
0.004128
0.004986
0.004891
0.003357
0.002235
0.00224
0.002727
0.004103
0.005222
0.004038
0.004449
0.004787
0.004504
0.002528
0.001638
0.001055
0.001774
0.002474
0.0035
0.003489
0.003271
0.002548
0.002777
0.002462
0.002395
0.002164
0.001889
0.001723
0.001679
0.001654
0.00195
0.002363
0.002765
0.002936
0.003025
0.002955
0.002564
0.002336
0.001604
0.001356
0.001184
0.001254
0.001099
0.001308
0.001476
0.001829
0.002415
0.00337
0.004416
0.006415
0.01088
0.02464
0.055
0.1377
0.3192
0.7349
0.9133
0.988
0.9987
0.9999
1
1
1
1.954e-05
1.257e-05
9.264e-06
6.803e-06
5.65e-06
4.943e-06
5.015e-06
5.871e-06
1.119e-05
1.825e-05
3.261e-05
1.499e-05
2.256e-06
1.439e-06
7.182e-06
4.153e-05
0.0005014
0.001002
0.0004193
0.0002333
0.0005007
0.000587
0.0008468
0.0003307
0.0001732
0.0001866
0.0003509
0.0008951
0.002715
0.002697
0.001663
0.0008043
0.0006004
0.0006637
0.001028
0.001102
0.0005221
0.0003611
0.0004688
0.0003474
9.531e-05
2.247e-05
2.747e-06
6.11e-07
3.067e-07
8.811e-08
3.826e-08
7.293e-08
4.097e-07
2.165e-06
6.368e-06
7.45e-06
8.691e-06
1.542e-05
1.723e-05
2.155e-05
2.898e-05
6.422e-05
0.0002186
0.0008671
0.001999
0.003886
0.005278
0.008127
0.00832
0.004775
0.004767
0.003703
0.002574
0.00182
0.002161
0.001609
0.002399
0.003076
0.002528
0.00143
0.0007764
0.000559
0.0005566
0.0009563
0.001409
0.001687
0.001722
0.00186
0.001985
0.001936
0.001973
0.001691
0.002352
0.004584
0.006249
0.005555
0.00425
0.003199
0.002569
0.002016
0.001327
0.0009638
0.00107
0.001156
0.0013
0.001088
0.00131
0.002446
0.005772
0.007955
0.006465
0.006078
0.005397
0.003648
0.001889
0.0008735
0.0004994
0.0008119
0.001508
0.002039
0.001921
0.001485
0.001099
0.001191
0.00117
0.001225
0.001229
0.001159
0.001052
0.0009243
0.0008092
0.0008644
0.001034
0.001349
0.001625
0.001845
0.001867
0.001513
0.001434
0.001539
0.001903
0.002469
0.003626
0.003759
0.004465
0.005591
0.007936
0.01261
0.02496
0.04654
0.08515
0.1389
0.2617
0.5523
0.7919
0.925
0.9884
0.9981
0.9999
1
1
1
1
1
3.209e-05
1.534e-05
9.127e-06
6.286e-06
5.954e-06
6.162e-06
9.617e-06
1.497e-05
2.131e-05
1.734e-05
2.31e-05
9.342e-06
1.482e-06
1.614e-06
1.012e-05
7.841e-05
0.001108
0.00391
0.003223
0.003721
0.00572
0.005816
0.006342
0.002569
0.001082
0.0004447
0.0002845
0.0003748
0.0008756
0.001134
0.001009
0.0007847
0.0006422
0.000862
0.001512
0.001838
0.0008873
0.0006188
0.0006605
0.000207
2.827e-05
2.54e-06
2.026e-07
3.463e-08
3.015e-08
9.486e-09
4.197e-09
5.862e-09
1.288e-08
5.81e-08
2.111e-07
2.665e-07
4.1e-07
8.937e-07
9.331e-07
1.074e-06
2.361e-06
1.063e-05
6.76e-05
0.000469
0.001397
0.003078
0.004832
0.009637
0.009886
0.00565
0.004378
0.002957
0.001814
0.001223
0.001122
0.0008284
0.001039
0.001551
0.001826
0.00151
0.0008757
0.0007575
0.0007868
0.001231
0.001709
0.002341
0.00321
0.004578
0.00526
0.004231
0.00344
0.002452
0.002821
0.006217
0.01138
0.01215
0.006595
0.004507
0.003094
0.002043
0.001399
0.001106
0.001027
0.001289
0.002329
0.002878
0.003305
0.003305
0.004052
0.003932
0.003527
0.003879
0.004048
0.002828
0.001257
0.0003344
0.0002016
0.0003702
0.0009527
0.001498
0.001726
0.00103
0.0007064
0.0007516
0.0007851
0.0008072
0.0008221
0.0008269
0.0008097
0.000771
0.0007268
0.0008057
0.0009914
0.001338
0.001783
0.00222
0.002355
0.001983
0.00204
0.002627
0.004442
0.00773
0.01418
0.02135
0.0366
0.05863
0.09114
0.1174
0.1916
0.4027
0.6575
0.8301
0.937
0.9806
0.995
0.9989
0.9999
1
1
1
1
1
1
1
5.44e-05
1.743e-05
8.124e-06
5.021e-06
5.366e-06
7.483e-06
2.099e-05
2.366e-05
1.821e-05
1.006e-05
7.015e-06
3.81e-06
1.938e-06
4.65e-06
3.46e-05
0.0002062
0.0007413
0.001453
0.001162
0.001181
0.002644
0.006941
0.01458
0.01486
0.01096
0.003557
0.001104
0.0005695
0.0006931
0.0009771
0.001415
0.001274
0.0008802
0.001044
0.001421
0.001641
0.0009326
0.0007374
0.0009706
0.0001292
7.481e-06
2.976e-07
1.752e-08
4.655e-09
1.669e-08
1.257e-08
7.619e-09
7.34e-09
7.355e-09
1.04e-08
4.026e-08
7.656e-08
1.945e-07
2.857e-07
1.87e-07
1.041e-07
1.983e-07
1.367e-06
1.647e-05
0.0002367
0.001167
0.002879
0.004071
0.006706
0.005716
0.002966
0.001907
0.001395
0.0007211
0.0005127
0.0003932
0.0002914
0.0003375
0.0006133
0.0008257
0.001551
0.001941
0.002774
0.003339
0.005081
0.00887
0.01911
0.05477
0.1661
0.3605
0.3621
0.2438
0.1401
0.08061
0.08088
0.09055
0.0882
0.06453
0.05139
0.02788
0.02065
0.01523
0.009242
0.007333
0.005162
0.00682
0.006071
0.006898
0.005796
0.005074
0.004135
0.004903
0.003858
0.003283
0.001892
0.0007145
0.0002146
0.0002014
0.0001921
0.0003588
0.0005178
0.0006714
0.0004642
0.0003965
0.0003613
0.0003737
0.0004148
0.0004659
0.0005169
0.0005517
0.0005745
0.0006063
0.0007315
0.001029
0.001687
0.003163
0.005791
0.008834
0.01152
0.01631
0.02534
0.0465
0.07683
0.1134
0.1732
0.3474
0.5806
0.7545
0.8473
0.9204
0.9662
0.9883
0.9962
0.9989
0.9997
0.9999
1
1
1
1
1
1
1
1
1
4.793e-05
1.494e-05
8.286e-06
6.207e-06
8.684e-06
1.439e-05
2.647e-05
1.5e-05
7.826e-06
4.813e-06
2.944e-06
3.774e-06
5.601e-06
2.262e-05
0.0001695
0.0005322
0.0005067
0.0002293
8.196e-05
5.13e-05
0.0001355
0.000721
0.004203
0.01331
0.01748
0.006001
0.001426
0.0006197
0.000564
0.001197
0.002418
0.002182
0.001132
0.0009011
0.0007149
0.0009697
0.001254
0.001667
0.00175
0.0001359
4.839e-06
1.321e-07
1.074e-08
5.922e-09
4.73e-08
8.562e-08
4.832e-08
1.909e-08
4.046e-09
1.921e-09
8.548e-09
3.714e-08
2.392e-07
5.181e-07
1.628e-07
3.351e-08
4.098e-08
3.088e-07
9.177e-06
0.0002554
0.001199
0.002354
0.00169
0.001777
0.001163
0.0007578
0.0005844
0.0005246
0.0003843
0.0004726
0.0005347
0.0006555
0.001127
0.003407
0.005255
0.01126
0.02422
0.0766
0.1574
0.3503
0.5216
0.6
0.7829
0.9333
0.9796
0.991
0.9932
0.9894
0.9731
0.9588
0.9541
0.9607
0.968
0.9636
0.9401
0.9158
0.8803
0.8243
0.7682
0.6079
0.3879
0.2229
0.1486
0.06778
0.02754
0.01325
0.01292
0.007518
0.005317
0.002806
0.000909
0.0003409
0.0003911
0.0002852
0.0005371
0.000937
0.001748
0.001772
0.001958
0.001622
0.001718
0.002096
0.002642
0.00332
0.004022
0.004806
0.005907
0.007937
0.01224
0.01764
0.02892
0.04845
0.07778
0.1168
0.2222
0.4059
0.6096
0.7217
0.8088
0.8945
0.9553
0.9835
0.9937
0.9969
0.9985
0.9994
0.9998
0.9999
1
1
1
1
1
1
1
1
1
1
1
1
2.336e-05
8.244e-06
6.48e-06
8.439e-06
1.867e-05
3.345e-05
2.421e-05
8.087e-06
3.123e-06
2.391e-06
2.32e-06
5.87e-06
2.182e-05
0.0001406
0.0004618
0.0007746
0.0002094
1.983e-05
3.362e-06
2.047e-06
9.235e-06
8.53e-05
0.0014
0.008237
0.01691
0.007841
0.003544
0.001737
0.001337
0.002282
0.003085
0.001568
0.0004291
0.0001485
0.0001052
0.0001488
0.0003844
0.001027
0.00141
0.0002043
1.066e-05
3.518e-07
4.068e-08
3.203e-08
1.754e-07
3.162e-07
2.142e-07
6.27e-08
8.981e-09
3.312e-09
1.311e-08
9.271e-08
1.314e-06
3.772e-06
1.067e-06
1.272e-07
1.055e-07
6.964e-07
1.983e-05
0.0006146
0.002203
0.002195
0.001031
0.0009044
0.000797
0.0007188
0.0006311
0.0005596
0.0005578
0.0009292
0.002009
0.005581
0.01688
0.05254
0.08838
0.1958
0.4888
0.8058
0.8974
0.9515
0.9688
0.9805
0.9914
0.9984
0.9997
0.9999
1
0.9999
0.9998
0.9996
0.9996
0.9997
0.9998
0.9998
0.9996
0.9992
0.9987
0.9981
0.9969
0.9918
0.9761
0.9516
0.9285
0.8837
0.7697
0.513
0.3986
0.1527
0.07059
0.02189
0.0109
0.004864
0.006225
0.004027
0.004637
0.006587
0.01471
0.01713
0.02089
0.01611
0.0155
0.01733
0.02132
0.02892
0.04337
0.06464
0.0991
0.1513
0.2775
0.4158
0.5796
0.709
0.8436
0.9139
0.9625
0.9821
0.9912
0.9942
0.9964
0.9981
0.9993
0.9997
0.9999
1
1
1
1
1
1
1
1
1
1
1
1
1
1
1
1
1
7.968e-06
4.125e-06
5.021e-06
8.694e-06
1.566e-05
2.798e-05
1.307e-05
5.567e-06
3.048e-06
6.759e-06
8.853e-06
4.187e-05
0.0001948
0.000587
0.0008818
0.0008716
0.0001205
7.626e-06
9.421e-07
4.337e-07
2.416e-06
6.092e-05
0.001913
0.01008
0.01675
0.006987
0.004055
0.002532
0.002569
0.004038
0.003938
0.001398
0.0002283
6.252e-05
3.037e-05
4.348e-05
0.0001433
0.0003788
0.0004624
0.0001018
8.064e-06
7.239e-07
1.572e-07
1.456e-07
3.243e-07
3.397e-07
2.024e-07
3.988e-08
4.379e-09
1.796e-09
7.195e-09
1.236e-07
4.97e-06
3.905e-05
1.747e-05
1.772e-06
7.494e-07
3.039e-06
4.802e-05
0.0008152
0.001941
0.001372
0.0004787
0.0003447
0.0003599
0.0005136
0.000801
0.001532
0.003659
0.009697
0.04286
0.1515
0.5271
0.7321
0.8346
0.9182
0.969
0.9924
0.9977
0.9992
0.9994
0.9996
0.9998
1
1
1
1
1
1
1
1
1
1
1
1
1
1
1
1
0.9999
0.9998
0.9996
0.9993
0.9986
0.9967
0.991
0.9841
0.9627
0.9245
0.8195
0.5672
0.202
0.1259
0.05269
0.04766
0.04181
0.06297
0.08335
0.0943
0.0963
0.1345
0.2312
0.4239
0.5968
0.7107
0.8133
0.8945
0.9388
0.9704
0.9832
0.9904
0.9935
0.997
0.9984
0.9994
0.9998
0.9999
0.9999
1
1
1
1
1
1
1
1
1
1
1
1
1
1
1
1
1
1
1
1
1
1
5.057e-06
4.424e-06
5.876e-06
1.059e-05
1.782e-05
2.783e-05
1.12e-05
6.181e-06
6.704e-06
1.321e-05
2.77e-05
0.0001487
0.0004901
0.0008736
0.001166
0.0007649
0.0001577
1.183e-05
1.465e-06
5.019e-07
2.291e-06
4.794e-05
0.001499
0.007781
0.01633
0.01038
0.009534
0.008009
0.0084
0.009667
0.007248
0.002502
0.0006006
0.0001762
6.966e-05
7.245e-05
0.0001921
0.0003743
0.0003854
0.0001405
2.884e-05
4.658e-06
1.883e-06
1.364e-06
1.03e-06
9.276e-07
4.386e-07
1.838e-07
4.341e-08
3.317e-08
9.001e-08
7.452e-07
1.037e-05
3.982e-05
2.221e-05
4.821e-06
3.83e-06
1.433e-05
0.0002185
0.001376
0.001559
0.0007988
0.0003286
0.0003722
0.0008258
0.002034
0.004884
0.01679
0.07027
0.3392
0.7408
0.9035
0.959
0.9781
0.9934
0.9983
0.9996
0.9999
1
1
1
1
1
1
1
1
1
1
1
1
1
1
1
1
1
1
1
1
1
1
1
1
1
1
1
0.9999
0.9998
0.9994
0.999
0.9983
0.9974
0.9959
0.9934
0.9836
0.9694
0.9385
0.9218
0.9203
0.9265
0.9394
0.9541
0.9691
0.9818
0.9897
0.9935
0.9964
0.9981
0.9989
0.9995
0.9997
0.9999
0.9999
1
1
1
1
1
1
1
1
1
1
1
1
1
1
1
1
1
1
1
1
1
1
1
1
1
1
1
1
6.825e-06
7.78e-06
1.269e-05
1.709e-05
2.556e-05
3.08e-05
1.873e-05
1.447e-05
3.195e-05
4.163e-05
8.334e-05
0.0002417
0.0005555
0.0006381
0.0007597
0.0006615
0.000402
4.895e-05
7.995e-06
2.123e-06
6.556e-06
7.911e-05
0.001479
0.005174
0.008416
0.007318
0.009837
0.01255
0.01516
0.01602
0.01215
0.006355
0.002792
0.001161
0.0004405
0.0003328
0.0004793
0.0006782
0.0007198
0.0005032
0.0001934
6.181e-05
3.722e-05
2.634e-05
1.156e-05
1.115e-05
7.305e-06
4.341e-06
1.376e-06
8.8e-07
8.582e-07
2.503e-06
8.581e-06
1.687e-05
1.193e-05
7.869e-06
1.783e-05
0.0001296
0.001152
0.003117
0.002367
0.001591
0.00141
0.002803
0.01061
0.0384
0.1096
0.496
0.812
0.9327
0.9806
0.9966
0.999
0.9995
0.9999
1
1
1
1
1
1
1
1
1
1
1
1
1
1
1
1
1
1
1
1
1
1
1
1
1
1
1
1
1
1
1
1
1
1
1
1
1
1
0.9999
0.9997
0.9992
0.9987
0.9984
0.9984
0.9989
0.9992
0.9996
0.9997
0.9998
0.9999
0.9999
1
1
1
1
1
1
1
1
1
1
1
1
1
1
1
1
1
1
1
1
1
1
1
1
1
1
1
1
1
1
1
1
1
1
2.312e-05
2.762e-05
4.939e-05
2.942e-05
3.935e-05
3.171e-05
3.597e-05
5.299e-05
0.0001377
9.003e-05
0.0001454
0.0001215
0.000268
0.0002252
0.0003334
0.000217
8.268e-05
6.156e-06
7.603e-07
2.084e-07
6.596e-07
8.245e-06
0.0001831
0.0007175
0.001865
0.002303
0.003429
0.005843
0.008762
0.009292
0.007874
0.005511
0.004481
0.003168
0.00181
0.001229
0.001519
0.001835
0.002304
0.002785
0.001235
0.0006017
0.0003632
0.0003129
0.000153
0.000209
0.0001691
0.0001303
5.635e-05
4.203e-05
2.412e-05
2.215e-05
2.918e-05
4.371e-05
5.041e-05
5.485e-05
0.0001578
0.0006096
0.002548
0.004922
0.006412
0.00716
0.01393
0.05018
0.2822
0.6645
0.8549
0.9655
0.9927
0.9982
0.9996
0.9999
1
1
1
1
1
1
1
1
1
1
1
1
1
1
1
1
1
1
1
1
1
1
1
1
1
1
1
1
1
1
1
1
1
1
1
1
1
1
1
1
1
1
1
1
1
1
1
1
1
1
1
1
1
1
1
1
1
1
1
1
1
1
1
1
1
1
1
1
1
1
1
1
1
1
1
1
1
1
1
1
1
1
1
1
1
1
1
1
6.031e-05
8.155e-05
0.0001856
8.759e-05
6.532e-05
3.574e-05
5.291e-05
0.0001114
0.0002633
0.0001344
0.0001736
0.0001037
0.0001161
0.0001431
0.0001237
2.333e-05
5.461e-06
2.991e-07
3.217e-08
1.015e-08
4.881e-08
1.387e-06
5.083e-05
0.0003584
0.001387
0.001439
0.002822
0.004832
0.007878
0.008187
0.007403
0.005899
0.006173
0.006384
0.005078
0.004378
0.005415
0.005924
0.007399
0.01033
0.005224
0.002789
0.001674
0.001714
0.0008995
0.0008907
0.000749
0.0007557
0.0006873
0.0007188
0.0004784
0.0003107
0.000266
0.0002098
0.0002219
0.0003145
0.0006824
0.00215
0.00936
0.02083
0.04911
0.1133
0.2638
0.5757
0.8394
0.9494
0.9896
0.9987
0.9998
1
1
1
1
1
1
1
1
1
1
1
1
1
1
1
1
1
1
1
1
1
1
1
1
1
1
1
1
1
1
1
1
1
1
1
1
1
1
1
1
1
1
1
1
1
1
1
1
1
1
1
1
1
1
1
1
1
1
1
1
1
1
1
1
1
1
1
1
1
1
1
1
1
1
1
1
1
1
1
1
1
1
1
1
1
1
1
1
1
1
1
0.0001399
0.0002444
0.0006587
0.0003689
0.0001703
9.059e-05
0.0001719
0.0002961
0.0004671
0.0002477
0.0001992
0.0001546
0.0001731
0.0002015
5.135e-05
4.434e-06
5.543e-07
3.509e-08
6.688e-09
3.661e-09
3.756e-08
1.244e-06
4.205e-05
0.0003675
0.001894
0.001746
0.002812
0.004634
0.006703
0.006246
0.005653
0.004324
0.005466
0.006444
0.007716
0.008394
0.01159
0.01137
0.01304
0.0161
0.00973
0.00691
0.005065
0.004881
0.002269
0.001575
0.000856
0.0007805
0.001113
0.001884
0.001769
0.00111
0.0009397
0.000752
0.001268
0.002144
0.005268
0.01367
0.05915
0.1922
0.5211
0.7428
0.9139
0.9772
0.9961
0.9994
0.9999
1
1
1
1
1
1
1
1
1
1
1
1
1
1
1
1
1
1
1
1
1
1
1
1
1
1
1
1
1
1
1
1
1
1
1
1
1
1
1
1
1
1
1
1
1
1
1
1
1
1
1
1
1
1
1
1
1
1
1
1
1
1
1
1
1
1
1
1
1
1
1
1
1
1
1
1
1
1
1
1
1
1
1
1
1
1
1
1
1
1
1
1
1
0.000124
0.0003018
0.00106
0.0005857
0.0002345
0.0001957
0.0004116
0.001334
0.001507
0.0007846
0.0003696
0.0002354
0.0001865
0.0002016
1.603e-05
1.098e-06
1.833e-07
3.144e-08
1.169e-08
1.204e-08
1.723e-07
4.931e-06
0.0001816
0.001305
0.004524
0.002855
0.003632
0.004461
0.005953
0.005979
0.005852
0.005053
0.007353
0.008883
0.008822
0.009232
0.01059
0.007143
0.005143
0.005286
0.004806
0.006154
0.009153
0.01122
0.005809
0.002678
0.0007835
0.0004719
0.0004717
0.0007932
0.001032
0.001128
0.001995
0.00371
0.008121
0.01789
0.05296
0.1356
0.5103
0.784
0.9295
0.9771
0.9964
0.9995
0.9999
1
1
1
1
1
1
1
1
1
1
1
1
1
1
1
1
1
1
1
1
1
1
1
1
1
1
1
1
1
1
1
1
1
1
1
1
1
1
1
1
1
1
1
1
1
1
1
1
1
1
1
1
1
1
1
1
1
1
1
1
1
1
1
1
1
1
1
1
1
1
1
1
1
1
1
1
1
1
1
1
1
1
1
1
1
1
1
1
1
1
1
1
1
1
1
0.000252
0.0005843
0.001592
0.000923
0.0002424
0.0002587
0.000773
0.003259
0.003341
0.001403
0.0005292
0.0002789
0.0001201
0.0001054
8.488e-06
7.822e-07
3.567e-07
2.502e-07
1.913e-07
3.473e-07
3.976e-06
6.232e-05
0.001133
0.005488
0.01354
0.007689
0.008135
0.007133
0.006901
0.005807
0.005523
0.005958
0.01017
0.01327
0.01157
0.01062
0.009941
0.006039
0.003674
0.002902
0.002234
0.002904
0.004364
0.005858
0.004167
0.002855
0.001121
0.0005878
0.0003983
0.0005306
0.000795
0.001473
0.004525
0.01422
0.04267
0.1337
0.4409
0.7106
0.892
0.9663
0.9938
0.999
0.9999
1
1
1
1
1
1
1
1
1
1
1
1
1
1
1
1
1
1
1
1
1
1
1
1
1
1
1
1
1
1
1
1
1
1
1
1
1
1
1
1
1
1
1
1
1
1
1
1
1
1
1
1
1
1
1
1
1
1
1
1
1
1
1
1
1
1
1
1
1
1
1
1
1
1
1
1
1
1
1
1
1
1
1
1
1
1
1
1
1
1
1
1
1
1
1
1
1
0.0004897
0.001021
0.002586
0.00158
0.0004087
0.0005005
0.001131
0.004209
0.004136
0.001672
0.0004581
0.0002751
0.0001505
0.0001117
1.464e-05
3.04e-06
3.495e-06
7.174e-06
9.593e-06
1.861e-05
0.0001101
0.0006294
0.00355
0.009281
0.01558
0.009807
0.01081
0.008992
0.007753
0.005624
0.006316
0.009149
0.01751
0.02532
0.01956
0.01442
0.00882
0.004682
0.002392
0.001618
0.001075
0.001358
0.001879
0.002644
0.00327
0.003628
0.002261
0.001573
0.001094
0.001005
0.001165
0.003754
0.01767
0.07991
0.4105
0.7694
0.9233
0.9744
0.9922
0.998
0.9997
1
1
1
1
1
1
1
1
1
1
1
1
1
1
1
1
1
1
1
1
1
1
1
1
1
1
0.9999
0.9999
0.9999
0.9999
0.9999
0.9999
0.9999
0.9999
1
1
1
1
1
1
1
1
1
1
1
1
1
1
1
1
1
1
1
1
1
1
1
1
1
1
1
1
1
1
1
1
1
1
1
1
1
1
1
1
1
1
1
1
1
1
1
1
1
1
1
1
1
1
1
1
1
1
1
1
1
1
1
1
1
0.001234
0.002351
0.004806
0.002185
0.0006211
0.0006619
0.0008842
0.003354
0.004782
0.002575
0.0009469
0.0008969
0.000576
0.0004114
8.849e-05
2.633e-05
3.234e-05
8.759e-05
0.0001638
0.0004878
0.001482
0.002497
0.003647
0.003856
0.003775
0.004002
0.008465
0.007272
0.006326
0.004099
0.003752
0.004583
0.009631
0.017
0.01669
0.01383
0.008841
0.005266
0.003439
0.002461
0.001461
0.001279
0.00126
0.001443
0.002366
0.004151
0.004836
0.005326
0.005026
0.004428
0.00799
0.02806
0.1912
0.6692
0.8931
0.9652
0.992
0.9981
0.9996
0.9999
1
1
1
1
1
1
1
1
1
1
1
1
1
1
1
1
1
1
0.9999
0.9999
1
0.9999
0.9998
0.9992
0.9973
0.996
0.9944
0.9927
0.9894
0.9881
0.9903
0.9912
0.9884
0.9905
0.9958
0.9985
0.9995
0.9998
0.9998
0.9998
0.9999
1
1
1
1
1
1
1
1
1
1
1
1
1
1
1
1
1
1
1
1
1
1
1
1
1
1
1
1
1
1
1
1
1
1
1
1
1
1
1
1
1
1
1
1
1
1
1
1
1
1
1
1
1
1
1
1
1
1
1
0.001956
0.003525
0.00662
0.002742
0.0008347
0.0004558
0.0003474
0.001412
0.003607
0.00393
0.002095
0.003141
0.002158
0.001529
0.0005578
0.0002505
0.0003073
0.0008432
0.001273
0.002951
0.005172
0.00429
0.002931
0.001966
0.001801
0.002556
0.008772
0.00769
0.006935
0.00466
0.003727
0.003271
0.005577
0.01057
0.01466
0.01696
0.01395
0.01003
0.007767
0.005286
0.002477
0.001592
0.001221
0.001183
0.00201
0.005056
0.008838
0.01576
0.02996
0.04653
0.1203
0.5439
0.8636
0.9593
0.9894
0.9968
0.9994
0.9999
1
1
1
1
1
1
1
1
1
1
1
1
1
1
1
1
1
1
1
0.9998
0.9994
0.9988
0.9981
0.9957
0.9852
0.9408
0.8793
0.8689
0.8415
0.8217
0.7743
0.7444
0.7538
0.7657
0.7652
0.835
0.898
0.935
0.9629
0.9728
0.9741
0.9776
0.9909
0.997
0.9993
0.9998
0.9999
0.9999
1
1
1
1
1
1
1
1
1
1
1
1
1
1
1
1
1
1
1
1
1
1
1
1
1
1
1
1
1
1
1
1
1
1
1
1
1
1
1
1
1
1
1
1
1
1
1
1
1
1
1
1
1
1
0.002652
0.004432
0.00846
0.002562
0.0008011
0.0002056
0.0001176
0.0005561
0.003563
0.008352
0.008098
0.01242
0.008112
0.005626
0.002751
0.001839
0.0014
0.002875
0.003193
0.005991
0.007567
0.004651
0.002727
0.001572
0.002255
0.004212
0.01482
0.01336
0.01078
0.006659
0.004714
0.00288
0.003417
0.005961
0.01092
0.01881
0.02377
0.01801
0.01516
0.01048
0.005184
0.003217
0.00214
0.001939
0.003439
0.008712
0.01883
0.04443
0.1372
0.4141
0.7706
0.941
0.9863
0.9956
0.9989
0.9997
0.9999
1
1
1
1
1
1
1
1
1
1
1
1
1
1
1
1
0.9999
0.9997
0.9995
0.9985
0.9938
0.9819
0.9567
0.9257
0.8592
0.7523
0.5935
0.5043
0.3682
0.2416
0.1962
0.1598
0.1428
0.1365
0.1258
0.1413
0.1689
0.1986
0.1904
0.3287
0.5318
0.7101
0.8061
0.8975
0.9329
0.9644
0.9855
0.9923
0.9943
0.9985
0.9995
0.9999
1
1
1
1
1
1
1
1
1
1
1
1
1
1
1
1
1
1
1
1
1
1
1
1
1
1
1
1
1
1
1
1
1
1
1
1
1
1
1
1
1
1
1
1
1
1
1
1
1
0.9999
0.9995
0.002118
0.003169
0.006868
0.002809
0.001754
0.0003428
0.0001686
0.0003827
0.002446
0.004596
0.006922
0.01112
0.0106
0.007754
0.004397
0.003958
0.002993
0.004866
0.006855
0.009075
0.00839
0.005279
0.00351
0.002333
0.002533
0.0037
0.01055
0.01135
0.01256
0.01026
0.007402
0.003476
0.002994
0.003736
0.00749
0.01551
0.02332
0.01649
0.01404
0.01088
0.006823
0.005062
0.004188
0.005343
0.01066
0.02971
0.07589
0.2497
0.6661
0.8857
0.9712
0.9939
0.9984
0.9993
0.9998
0.9999
1
1
1
1
1
1
1
1
1
1
1
1
1
1
1
0.9999
0.9996
0.9976
0.9904
0.9796
0.9476
0.8711
0.7414
0.5943
0.3926
0.1861
0.1033
0.0659
0.03727
0.02159
0.01391
0.01344
0.01492
0.01769
0.01573
0.01325
0.01747
0.02455
0.03156
0.03318
0.03976
0.04623
0.07075
0.1065
0.1628
0.2693
0.524
0.7782
0.8902
0.9312
0.976
0.9879
0.9936
0.9965
0.9982
0.999
0.9998
1
1
1
1
1
1
1
1
1
1
1
1
1
1
1
1
1
1
1
1
1
1
1
1
1
1
1
1
1
1
1
1
1
1
1
1
1
1
1
1
1
1
0.9999
0.9996
0.9977
0.9895
0.968
0.001779
0.002121
0.005024
0.003104
0.003312
0.0005665
0.0003188
0.0003391
0.00133
0.002447
0.004776
0.007203
0.009682
0.008815
0.004362
0.003645
0.003171
0.005598
0.01155
0.01416
0.01118
0.007596
0.006497
0.005487
0.005407
0.005315
0.009243
0.009817
0.01214
0.01245
0.009539
0.003947
0.003374
0.003425
0.006323
0.01232
0.01941
0.01413
0.01295
0.01059
0.008091
0.008042
0.009144
0.01374
0.03384
0.1064
0.3547
0.7565
0.9345
0.9843
0.9964
0.999
0.9996
0.9998
0.9999
1
1
1
1
1
1
1
1
1
1
1
1
1
0.9999
0.9998
0.9994
0.998
0.9907
0.9524
0.8443
0.7321
0.547
0.2649
0.1091
0.05401
0.02001
0.01166
0.008415
0.005977
0.0034
0.002459
0.001447
0.001587
0.002377
0.003142
0.002911
0.00265
0.003897
0.006584
0.009819
0.01202
0.01188
0.01072
0.0138
0.01887
0.02375
0.03373
0.0529
0.09172
0.1691
0.3443
0.6842
0.8442
0.9004
0.9235
0.9587
0.9815
0.9956
0.9995
1
1
1
1
1
1
1
1
1
1
1
1
1
1
1
1
1
1
1
1
1
1
1
1
1
1
1
1
1
1
1
1
1
1
1
1
1
0.9999
0.9998
0.9994
0.998
0.991
0.9706
0.913
0.821
0.7359
0.00202
0.001672
0.004321
0.002801
0.003759
0.000722
0.0004481
0.0002668
0.0006149
0.001215
0.002766
0.005014
0.009837
0.01101
0.004415
0.003179
0.003536
0.007621
0.009173
0.006595
0.003524
0.003263
0.006359
0.01278
0.01278
0.00761
0.006935
0.007519
0.01042
0.01185
0.01082
0.006221
0.005777
0.004411
0.005037
0.005655
0.006581
0.005308
0.007516
0.008847
0.009455
0.01258
0.02011
0.04212
0.158
0.5312
0.8209
0.9562
0.9916
0.9981
0.9995
0.9997
0.9999
1
1
1
1
1
1
1
1
1
1
1
1
1
0.9999
0.9996
0.9981
0.9939
0.9781
0.9449
0.8449
0.6193
0.2948
0.1148
0.04547
0.01687
0.006879
0.004347
0.002087
0.001636
0.001362
0.001229
0.000719
0.0007974
0.0005697
0.0006632
0.000865
0.00117
0.001113
0.001033
0.001478
0.002705
0.003951
0.00499
0.004806
0.003933
0.00492
0.006156
0.007394
0.01051
0.01529
0.02305
0.0328
0.05098
0.07435
0.1379
0.2973
0.5702
0.8549
0.9575
0.9865
0.9977
0.9998
1
1
1
1
1
1
1
1
1
1
1
1
1
1
1
1
1
1
1
1
1
1
1
1
1
1
1
1
1
1
1
1
0.9999
0.9998
0.9991
0.9977
0.9922
0.9803
0.9454
0.8673
0.7171
0.5962
0.4507
0.294
0.1214
0.002149
0.001491
0.004675
0.002899
0.003439
0.0007649
0.0004413
0.0002739
0.0006902
0.00121
0.001753
0.002875
0.007104
0.01029
0.003747
0.002538
0.002392
0.004808
0.005002
0.004293
0.001733
0.001744
0.003813
0.01387
0.01644
0.009938
0.007719
0.007525
0.01044
0.01154
0.01177
0.009793
0.0107
0.008277
0.006565
0.004278
0.003312
0.002894
0.00572
0.01055
0.01865
0.03258
0.08331
0.2632
0.7226
0.9032
0.9736
0.9942
0.999
0.9997
0.9999
1
1
1
1
1
1
1
1
1
1
1
1
1
0.9999
0.9997
0.9986
0.9936
0.9708
0.9152
0.7421
0.497
0.1301
0.04938
0.02125
0.01216
0.005818
0.002778