/*--------------------------------*- C++ -*----------------------------------*\
| =========                 |                                                 |
| \\      /  F ield         | OpenFOAM: The Open Source CFD Toolbox           |
|  \\    /   O peration     | Version:  5.x                                   |
|   \\  /    A nd           | Web:      www.OpenFOAM.org                      |
|    \\/     M anipulation  |                                                 |
\*---------------------------------------------------------------------------*/
FoamFile
{
    version     2.0;
    format      ascii;
    class       volScalarField;
    location    "135";
    object      gamma;
}
// * * * * * * * * * * * * * * * * * * * * * * * * * * * * * * * * * * * * * //

dimensions      [0 0 0 0 0 0 0];

internalField   nonuniform List<scalar> 
86400
(
1.983e-06
2.424e-06
3.665e-06
6.623e-06
1.369e-05
2.125e-05
2.492e-05
2.764e-05
3.106e-05
2.924e-05
3.865e-05
4.299e-05
4.408e-05
3.257e-05
2.719e-05
3.418e-05
9.456e-05
0.0003077
0.0006726
0.0009587
0.001109
0.001383
0.00235
0.003021
0.003106
0.003766
0.00336
0.003081
0.002703
0.002426
0.002144
0.002127
0.00224
0.002542
0.003202
0.004846
0.006203
0.00693
0.005781
0.005419
0.004727
0.005022
0.004771
0.003691
0.003286
0.003596
0.004794
0.006004
0.007475
0.007032
0.007021
0.007347
0.007873
0.008758
0.009595
0.01139
0.01356
0.01424
0.01344
0.01225
0.01014
0.009945
0.009696
0.01042
0.01294
0.01694
0.01849
0.01913
0.01593
0.01477
0.01731
0.02336
0.02699
0.02581
0.02421
0.0234
0.02219
0.0251
0.02896
0.02804
0.02636
0.02304
0.02143
0.02348
0.02972
0.03303
0.03499
0.03252
0.03238
0.03172
0.02735
0.02822
0.03074
0.03912
0.04386
0.04623
0.03918
0.03622
0.0345
0.03234
0.02958
0.02345
0.01823
0.01279
0.00897
0.008728
0.01168
0.01618
0.01354
0.008592
0.004445
0.002864
0.00268
0.002982
0.002938
0.002736
0.002578
0.002478
0.002508
0.002556
0.002553
0.002477
0.002315
0.002094
0.001966
0.001939
0.001867
0.001806
0.001758
0.001665
0.001492
0.001648
0.001588
0.001298
0.001063
0.0009281
0.0009822
0.001289
0.0007919
0.0002811
0.0001026
5.109e-05
4.509e-05
3.371e-05
1.211e-05
3.491e-06
1.306e-06
4.339e-07
3.185e-07
4.644e-07
8.921e-07
4.823e-06
4.408e-05
0.0001884
0.0005884
0.001233
0.001539
0.002662
0.1107
0.9932
2.489e-06
2.646e-06
3.659e-06
5.916e-06
1.253e-05
1.955e-05
2.215e-05
2.149e-05
1.803e-05
1.452e-05
1.906e-05
2.528e-05
3.697e-05
4.48e-05
4.232e-05
4.129e-05
9.721e-05
0.0003025
0.0007825
0.00183
0.002543
0.002993
0.004091
0.005267
0.005572
0.005802
0.005372
0.005028
0.004839
0.004107
0.003656
0.003645
0.003975
0.004679
0.006095
0.009153
0.01237
0.01512
0.01423
0.01383
0.01204
0.01184
0.01141
0.009137
0.007128
0.006839
0.007393
0.008421
0.01051
0.01121
0.01206
0.0136
0.01579
0.01783
0.01572
0.01328
0.01122
0.009331
0.007882
0.007805
0.006959
0.006749
0.006219
0.006156
0.00692
0.01009
0.01234
0.0146
0.0139
0.01472
0.01811
0.02314
0.02048
0.01634
0.01267
0.01339
0.01788
0.02727
0.03478
0.03424
0.03024
0.02591
0.02675
0.03067
0.04107
0.04787
0.05342
0.05081
0.05302
0.05636
0.05532
0.05952
0.06236
0.06217
0.05758
0.05044
0.0393
0.03387
0.03099
0.02814
0.02806
0.02893
0.03147
0.02879
0.02056
0.01684
0.01918
0.02409
0.02444
0.01886
0.009811
0.00597
0.004647
0.004438
0.004111
0.004053
0.004556
0.005604
0.006921
0.007781
0.008332
0.008488
0.008228
0.007578
0.007181
0.007144
0.006803
0.00646
0.006166
0.005797
0.005275
0.00525
0.004394
0.003563
0.002992
0.002326
0.00198
0.001829
0.001007
0.0003344
0.0001465
6.597e-05
4.416e-05
3.665e-05
2.055e-05
1.214e-05
7.575e-06
4.786e-06
6.716e-06
1.129e-05
2.435e-05
7.803e-05
0.0003142
0.001
0.004189
0.01657
0.05471
0.3108
0.7545
0.9906
3.682e-06
3.605e-06
4.555e-06
6.364e-06
1.247e-05
1.8e-05
1.87e-05
1.633e-05
1.143e-05
1.023e-05
1.423e-05
2.585e-05
4.258e-05
6.764e-05
6.321e-05
7.029e-05
0.000179
0.0005688
0.001163
0.002535
0.002859
0.0031
0.004242
0.005797
0.00553
0.006393
0.006975
0.008032
0.009675
0.009439
0.008302
0.008958
0.009015
0.008738
0.008626
0.009552
0.01086
0.01241
0.01034
0.009835
0.009072
0.01038
0.0114
0.01165
0.009786
0.009641
0.01083
0.01236
0.01521
0.01742
0.01572
0.01302
0.01097
0.00977
0.007619
0.007211
0.006334
0.005153
0.004261
0.004339
0.004304
0.00459
0.004824
0.005687
0.005955
0.00721
0.008425
0.01009
0.01008
0.01186
0.01395
0.01387
0.01005
0.008671
0.008606
0.01351
0.02522
0.04269
0.05307
0.05472
0.04781
0.03881
0.03915
0.04414
0.06195
0.07142
0.07994
0.07847
0.06932
0.05736
0.04397
0.03547
0.02867
0.03029
0.03128
0.03159
0.0303
0.02999
0.02693
0.02514
0.0276
0.03347
0.04302
0.04399
0.03586
0.03067
0.02994
0.03614
0.03993
0.03348
0.02175
0.01606
0.01162
0.0103
0.009469
0.009904
0.01043
0.0111
0.01122
0.01037
0.01015
0.0109
0.01083
0.01013
0.009742
0.00977
0.009349
0.008857
0.008248
0.007856
0.007449
0.006906
0.004776
0.002932
0.002083
0.001587
0.001609
0.001803
0.001409
0.0007059
0.0003581
0.0001945
0.0001605
0.000146
0.0001074
7.476e-05
5.341e-05
4.878e-05
8.933e-05
0.0001662
0.0002853
0.0006431
0.002126
0.007268
0.0307
0.1281
0.5319
0.8869
0.9759
0.9988
5.695e-06
5.447e-06
5.82e-06
6.697e-06
1.108e-05
1.378e-05
1.209e-05
9.41e-06
6.822e-06
7.964e-06
1.044e-05
1.247e-05
1.339e-05
2.925e-05
3.823e-05
6.668e-05
0.00017
0.0003147
0.0003577
0.0004789
0.0004451
0.0003692
0.0006565
0.001114
0.001118
0.001587
0.002351
0.003418
0.005521
0.007192
0.006561
0.008412
0.009533
0.009856
0.009347
0.009224
0.009322
0.01045
0.00803
0.008041
0.008831
0.01252
0.01917
0.0256
0.01761
0.01224
0.00827
0.00659
0.006724
0.008349
0.006863
0.005113
0.004533
0.004264
0.003399
0.003322
0.002762
0.002263
0.002164
0.002694
0.003111
0.003877
0.004633
0.005164
0.005063
0.005852
0.006238
0.006944
0.00712
0.009821
0.01362
0.01332
0.01043
0.01002
0.008973
0.01512
0.02822
0.04151
0.04143
0.04295
0.0365
0.03087
0.03079
0.03196
0.03616
0.03782
0.03988
0.03869
0.03743
0.03862
0.04049
0.04118
0.03524
0.03694
0.03597
0.03507
0.03478
0.03611
0.03236
0.03272
0.03401
0.03632
0.04926
0.05204
0.0396
0.0321
0.0255
0.0284
0.03333
0.03604
0.02545
0.02121
0.01474
0.0125
0.01164
0.01396
0.01679
0.01943
0.01969
0.01769
0.01641
0.01833
0.01864
0.01774
0.01729
0.01745
0.01685
0.01613
0.01562
0.01524
0.015
0.01353
0.00873
0.005129
0.003148
0.001883
0.001459
0.001194
0.00106
0.0008494
0.0005324
0.0003168
0.0002782
0.0002914
0.0003359
0.0003927
0.0004464
0.000555
0.001375
0.003182
0.006805
0.01286
0.02921
0.0786
0.3088
0.7496
0.9431
0.9942
0.9996
1
1.041e-05
1.112e-05
1.083e-05
1.125e-05
1.358e-05
1.218e-05
7.336e-06
6.069e-06
5.448e-06
7.969e-06
8.946e-06
6.218e-06
3.669e-06
8.366e-06
1.453e-05
5.346e-05
0.0002245
0.0002092
9.027e-05
8.374e-05
8.74e-05
7.738e-05
0.0001953
0.0003093
0.0003178
0.0006282
0.001545
0.004048
0.008671
0.01024
0.005528
0.004588
0.003806
0.003516
0.003471
0.003271
0.002749
0.003526
0.003809
0.005725
0.006675
0.007871
0.006195
0.005016
0.002527
0.001655
0.0009639
0.0008702
0.001195
0.002384
0.002842
0.002958
0.002687
0.002801
0.002496
0.002625
0.002372
0.002084
0.00259
0.004033
0.00577
0.008131
0.01109
0.01237
0.009571
0.007283
0.00618
0.005489
0.005005
0.006489
0.008933
0.007812
0.007542
0.00884
0.0102
0.01501
0.02524
0.02759
0.02417
0.02663
0.02295
0.01915
0.01975
0.02257
0.02811
0.03377
0.03628
0.03197
0.02765
0.02677
0.02615
0.03176
0.03188
0.03621
0.03399
0.03571
0.02831
0.02758
0.02613
0.02379
0.01742
0.01094
0.00957
0.01031
0.01122
0.01724
0.02062
0.02089
0.0232
0.03432
0.02805
0.02737
0.02104
0.01868
0.01548
0.01437
0.01203
0.01025
0.007741
0.007175
0.006546
0.007237
0.007308
0.007115
0.007134
0.007386
0.007473
0.007498
0.007628
0.007792
0.00797
0.00673
0.004015
0.002291
0.001089
0.0006013
0.0004731
0.0005385
0.0005677
0.0006125
0.000519
0.0004632
0.0005449
0.0007367
0.001276
0.002132
0.003382
0.005638
0.01432
0.02774
0.05442
0.103
0.2467
0.6214
0.8705
0.9723
0.9961
0.9997
1
1
1.462e-05
1.931e-05
1.862e-05
1.921e-05
1.473e-05
9.803e-06
4.919e-06
4.614e-06
5.947e-06
1.25e-05
1.453e-05
5.855e-06
2.049e-06
3.384e-06
1.268e-05
6.138e-05
0.0002259
0.0001458
5.422e-05
5.889e-05
9.946e-05
0.0001149
0.0003263
0.0001892
9.194e-05
9.928e-05
0.0002128
0.0006468
0.002448
0.002736
0.001248
0.0008798
0.0007279
0.0007449
0.001126
0.001275
0.0008731
0.0009296
0.001034
0.001091
0.0007578
0.0005821
0.0002491
0.0001332
6.338e-05
2.5e-05
5.676e-06
4.425e-06
7.076e-06
2.178e-05
4.283e-05
9.267e-05
0.0001694
0.0002681
0.0003311
0.0003197
0.0002559
0.0002993
0.0008454
0.002548
0.005906
0.008316
0.007503
0.006577
0.004657
0.003448
0.004773
0.006012
0.005987
0.008045
0.01154
0.009225
0.008802
0.00946
0.008503
0.008945
0.00857
0.007853
0.007504
0.01061
0.01348
0.01969
0.02609
0.03407
0.04218
0.04655
0.04194
0.0328
0.02789
0.03074
0.0305
0.0238
0.01303
0.007147
0.003189
0.002221
0.00135
0.001476
0.001678
0.002605
0.002996
0.002726
0.002426
0.002423
0.002395
0.00388
0.00452
0.006015
0.008349
0.009389
0.006776
0.006679
0.005934
0.006254
0.005599
0.005044
0.004108
0.003516
0.002892
0.002819
0.002491
0.002541
0.002456
0.002401
0.002415
0.002475
0.002567
0.002685
0.002841
0.003016
0.003157
0.00288
0.002129
0.001639
0.0009834
0.0006303
0.0004519
0.000488
0.000563
0.0007744
0.0008383
0.0009193
0.001265
0.002189
0.005226
0.01093
0.02005
0.03654
0.0743
0.1603
0.4113
0.6582
0.8464
0.9535
0.991
0.999
0.9999
1
1
1
1.662e-05
2.701e-05
2.397e-05
2.143e-05
1.355e-05
8.48e-06
4.236e-06
6.128e-06
1.506e-05
4.033e-05
4.107e-05
1.276e-05
2.138e-06
2.343e-06
5.378e-06
3.755e-05
0.0002222
0.0003
0.0001764
0.0002688
0.0006024
0.0006623
0.001258
0.0002944
8.316e-05
5.282e-05
8.81e-05
0.0002192
0.001058
0.001209
0.0005571
0.0002908
0.0002698
0.0003657
0.0006376
0.000667
0.0003242
0.0002649
0.000379
0.000401
0.0001841
7.078e-05
1.295e-05
3.629e-06
1.565e-06
3.196e-07
4.422e-08
2.932e-08
5.111e-08
2.451e-07
7.473e-07
2.159e-06
5.408e-06
1.216e-05
1.895e-05
1.985e-05
1.926e-05
3.433e-05
0.0002079
0.001001
0.003878
0.007056
0.006583
0.006975
0.007197
0.005575
0.00901
0.01209
0.01157
0.01122
0.01536
0.008629
0.006157
0.005592
0.0053
0.006439
0.005545
0.004138
0.00261
0.002567
0.003164
0.00648
0.01061
0.01157
0.013
0.01298
0.01103
0.008647
0.0106
0.01621
0.01532
0.01571
0.01078
0.0052
0.001635
0.0009472
0.0004356
0.0004663
0.0004861
0.001071
0.001528
0.001484
0.001467
0.001051
0.0006706
0.0006437
0.0006464
0.0006347
0.00126
0.001617
0.001759
0.002225
0.002339
0.002706
0.002715
0.002531
0.001894
0.001635
0.001354
0.001477
0.001444
0.001471
0.001423
0.00134
0.001304
0.001296
0.001302
0.001321
0.00137
0.001449
0.001557
0.001678
0.001664
0.001704
0.001348
0.001207
0.001327
0.001874
0.002849
0.0053
0.008147
0.01208
0.01849
0.03018
0.05234
0.08984
0.1801
0.3784
0.5997
0.7835
0.9008
0.9652
0.992
0.9987
0.9998
1
1
1
1
1
2.468e-05
3.853e-05
2.711e-05
2.164e-05
1.46e-05
9.945e-06
6.861e-06
1.714e-05
3.984e-05
6.302e-05
6.223e-05
1.652e-05
2.628e-06
2.468e-06
5.028e-06
2.92e-05
0.0001971
0.0005579
0.001003
0.003606
0.007576
0.007246
0.008663
0.001934
0.0003886
9.641e-05
0.000111
0.0001724
0.000632
0.0008219
0.0005033
0.0004439
0.0004457
0.0006323
0.0009248
0.0008381
0.0003788
0.0003604
0.0006997
0.0004117
0.0001104
1.83e-05
2.711e-06
4.942e-07
2.529e-07
3.49e-08
3.902e-09
2.433e-09
4.985e-09
2.704e-08
1.081e-07
4.765e-07
2.147e-06
7.754e-06
1.247e-05
6.475e-06
3.351e-06
4.135e-06
2.413e-05
0.0001609
0.001201
0.003873
0.005022
0.006703
0.008344
0.007358
0.01148
0.01291
0.00913
0.00492
0.004304
0.002417
0.001601
0.001486
0.001927
0.002286
0.001893
0.002297
0.001852
0.002397
0.003175
0.007595
0.01428
0.02034
0.01944
0.01823
0.01827
0.01339
0.02214
0.04101
0.03139
0.0374
0.03877
0.01848
0.00763
0.004411
0.001628
0.001895
0.002236
0.003004
0.00238
0.002955
0.001662
0.0005415
0.0001666
0.0001078
0.0001735
0.0002398
0.0004963
0.0003387
0.000293
0.0003148
0.000452
0.0007044
0.0008218
0.000828
0.0009863
0.001151
0.001201
0.001656
0.001918
0.002115
0.002256
0.002207
0.002057
0.002
0.002001
0.002021
0.002101
0.002285
0.002662
0.003394
0.00467
0.006622
0.007662
0.008001
0.008655
0.01074
0.01641
0.03166
0.05494
0.09594
0.1724
0.3165
0.496
0.6738
0.8183
0.9176
0.9676
0.9898
0.997
0.9993
0.9999
1
1
1
1
1
1
1
3.537e-05
4.306e-05
2.548e-05
1.874e-05
1.321e-05
1.128e-05
1.462e-05
3.307e-05
4.992e-05
5.658e-05
3.577e-05
1.248e-05
5.016e-06
5.878e-06
1.301e-05
4.889e-05
0.0001469
0.0004343
0.00107
0.002218
0.005263
0.008743
0.01751
0.009473
0.003103
0.0009553
0.0004672
0.0004844
0.0009621
0.001309
0.001035
0.001375
0.001234
0.001486
0.001245
0.0006843
0.0002127
0.0002735
0.0005128
0.0001621
3.062e-05
4.01e-06
7.471e-07
1.893e-07
1.878e-07
4.695e-08
1.13e-08
8.32e-09
1.636e-08
2.885e-08
6.875e-08
1.958e-07
6.903e-07
2.28e-06
4.1e-06
2.479e-06
1.107e-06
1.123e-06
4.581e-06
3.633e-05
0.0004847
0.002807
0.006425
0.009735
0.009881
0.005402
0.004928
0.004184
0.002394
0.00112
0.0009101
0.0005772
0.0004461
0.000545
0.001464
0.004193
0.007443
0.01705
0.0246
0.03923
0.0811
0.2751
0.6086
0.7669
0.8254
0.8748
0.8931
0.8353
0.7758
0.6697
0.3295
0.3201
0.5628
0.5558
0.5881
0.5766
0.3613
0.2497
0.165
0.09854
0.0482
0.03695
0.01403
0.002867
0.0008358
0.0002972
0.0002831
0.0002933
0.000383
0.0001247
8.018e-05
4.912e-05
5.472e-05
9.385e-05
0.0002182
0.0005708
0.001268
0.001553
0.001403
0.001333
0.001388
0.001752
0.002192
0.00246
0.00245
0.00241
0.002576
0.002857
0.003287
0.004023
0.005512
0.008775
0.01554
0.02709
0.04321
0.06475
0.09841
0.1603
0.2421
0.3929
0.5535
0.7196
0.8425
0.921
0.9604
0.9825
0.9932
0.9978
0.9993
0.9998
0.9999
1
1
1
1
1
1
1
1
1
2.969e-05
2.969e-05
1.978e-05
1.59e-05
1.486e-05
1.843e-05
2.27e-05
3.3e-05
3.445e-05
3.096e-05
1.515e-05
9.014e-06
8.646e-06
1.489e-05
4.305e-05
0.000103
0.0003116
0.0004091
0.0006006
0.0005228
0.0009618
0.002271
0.008044
0.01365
0.00955
0.00356
0.0011
0.0009448
0.0009706
0.001687
0.002452
0.004835
0.004589
0.004656
0.001774
0.0006872
0.0003133
0.0004577
0.0004229
6.874e-05
9.708e-06
1.209e-06
3.85e-07
2.403e-07
3.198e-07
1.283e-07
8.349e-08
9.519e-08
9.764e-08
6.915e-08
6.522e-08
7.967e-08
3.123e-07
1.558e-06
3.505e-06
2.901e-06
1.839e-06
1.627e-06
4.177e-06
3.107e-05
0.0003237
0.002307
0.004859
0.006323
0.004642
0.001862
0.0009631
0.0008502
0.0006788
0.0005346
0.0007723
0.000905
0.001822
0.005347
0.01755
0.04882
0.1076
0.3159
0.5739
0.7397
0.8644
0.9344
0.9714
0.9859
0.9908
0.9952
0.995
0.9921
0.9871
0.9738
0.9449
0.946
0.9787
0.985
0.9903
0.9892
0.9855
0.9786
0.9649
0.929
0.861
0.7938
0.5731
0.1231
0.02199
0.007246
0.004291
0.00305
0.002187
0.0003844
9.525e-05
2.474e-05
1.39e-05
1.017e-05
2.844e-05
0.0001454
0.0006159
0.001401
0.001921
0.001609
0.001934
0.003668
0.005581
0.007627
0.01016
0.01313
0.01972
0.03011
0.04347
0.05658
0.07855
0.1118
0.1379
0.1879
0.3055
0.5134
0.6959
0.8197
0.8754
0.9304
0.9656
0.9862
0.9946
0.9979
0.9991
0.9996
0.9998
0.9999
1
1
1
1
1
1
1
1
1
1
1
1
2.588e-05
2.156e-05
1.785e-05
2.08e-05
2.893e-05
2.272e-05
1.263e-05
9.558e-06
6.877e-06
6.922e-06
6.612e-06
7.368e-06
1.778e-05
5.962e-05
0.0001367
0.0003176
0.0005218
0.00029
0.000248
0.0001228
0.0002086
0.0004362
0.002833
0.01154
0.01788
0.01051
0.00645
0.004111
0.002413
0.003095
0.003249
0.003902
0.002593
0.001958
0.0007731
0.0003296
0.0002463
0.000597
0.0004016
7.372e-05
7.296e-06
1.171e-06
2.659e-07
1.613e-07
1.46e-07
1.698e-07
6.755e-07
1.766e-06
1.865e-06
5.394e-07
1.091e-07
4.894e-08
1.94e-07
1.953e-06
1.055e-05
2.613e-05
2.634e-05
1.869e-05
2.859e-05
0.0001553
0.0007945
0.002686
0.00373
0.003423
0.001691
0.0006957
0.0003571
0.0004586
0.0007552
0.001457
0.003638
0.01384
0.04242
0.1713
0.5577
0.7695
0.8884
0.9482
0.9764
0.9887
0.9948
0.9972
0.9987
0.9993
0.9996
0.9998
0.9999
0.9998
0.9995
0.9991
0.9985
0.999
0.9997
0.9998
0.9999
0.9999
0.9998
0.9995
0.999
0.9972
0.9934
0.9875
0.972
0.9333
0.865
0.7179
0.4559
0.1715
0.06844
0.01521
0.003226
0.0004613
0.0001103
4.21e-05
9.475e-05
0.0004625
0.001983
0.004218
0.006198
0.005309
0.007271
0.01661
0.02965
0.04544
0.06793
0.08795
0.1059
0.1267
0.1833
0.2996
0.5384
0.7127
0.777
0.8412
0.9193
0.9658
0.9872
0.995
0.9972
0.9985
0.9993
0.9997
0.9999
1
1
1
1
1
1
1
1
1
1
1
1
1
1
1
1
1
2.393e-05
1.955e-05
1.96e-05
2.808e-05
4.271e-05
3.266e-05
1.073e-05
5.236e-06
2.49e-06
4.43e-06
6.262e-06
2.319e-05
8.485e-05
0.0001939
0.0004097
0.0009765
0.0009113
0.0005479
0.0003158
0.0001184
0.0001871
0.0005204
0.003584
0.01304
0.02277
0.01569
0.01404
0.009097
0.006427
0.006271
0.005854
0.004631
0.002333
0.001117
0.0006842
0.0003949
0.0004166
0.001139
0.0004596
6.907e-05
5.733e-06
5.805e-07
9.254e-08
6.037e-08
3.638e-08
8.155e-08
5.649e-07
3.825e-06
4.349e-06
1.138e-06
1.291e-07
5.809e-08
3.034e-07
5.282e-06
4.832e-05
0.0001352
0.000178
0.0001701
0.0002062
0.0005257
0.0007341
0.0008936
0.0007152
0.0006176
0.0003817
0.0004347
0.0005836
0.001759
0.006744
0.02919
0.1328
0.5564
0.8038
0.9159
0.9605
0.98
0.9917
0.997
0.999
0.9996
0.9998
0.9999
0.9999
1
1
1
1
1
1
1
1
1
1
1
1
1
0.9999
0.9999
0.9998
0.9996
0.9994
0.9991
0.9983
0.9967
0.9938
0.9862
0.972
0.9558
0.9241
0.8629
0.7011
0.2154
0.03779
0.008906
0.007402
0.01568
0.02939
0.03514
0.0388
0.034
0.0497
0.1029
0.175
0.2695
0.4542
0.6419
0.7878
0.845
0.9172
0.9551
0.9799
0.9912
0.9948
0.9964
0.9984
0.9994
0.9998
0.9999
1
1
1
1
1
1
1
1
1
1
1
1
1
1
1
1
1
1
1
1
1
1
1.37e-05
1.323e-05
1.479e-05
2.089e-05
4.139e-05
3.731e-05
1.119e-05
5.289e-06
4.794e-06
9.635e-06
2.337e-05
0.0001178
0.0002638
0.0005394
0.0008717
0.001219
0.001029
0.0007127
0.0003645
0.0001543
0.0002219
0.00061
0.002995
0.008049
0.0155
0.01352
0.01834
0.01498
0.01399
0.01173
0.01177
0.007688
0.004457
0.00267
0.001593
0.001022
0.001148
0.00236
0.0006662
0.0001229
1.315e-05
1.445e-06
1.493e-07
1.062e-07
5.671e-08
1.773e-07
1.88e-06
2.07e-05
1.983e-05
6.075e-06
4.281e-07
1.322e-07
4.312e-07
6.781e-06
4.838e-05
0.0001672
0.0003037
0.0003722
0.0005033
0.0007875
0.0005884
0.0004549
0.0002793
0.0004047
0.0007483
0.002338
0.007658
0.04696
0.3001
0.7502
0.9071
0.9605
0.98
0.9904
0.9959
0.9985
0.9995
0.9999
0.9999
1
1
1
1
1
1
1
1
1
1
1
1
1
1
1
1
1
1
1
1
0.9999
0.9999
0.9999
0.9999
0.9999
0.9998
0.9994
0.9987
0.9974
0.9963
0.9954
0.9921
0.9817
0.9561
0.8851
0.8294
0.8315
0.795
0.7737
0.768
0.7568
0.8254
0.8929
0.9323
0.9578
0.9773
0.9889
0.9948
0.9962
0.9981
0.9991
0.9996
0.9998
0.9999
0.9999
1
1
1
1
1
1
1
1
1
1
1
1
1
1
1
1
1
1
1
1
1
1
1
1
1
1
1.666e-05
1.508e-05
1.813e-05
2.18e-05
4.328e-05
5.698e-05
2.512e-05
1.98e-05
1.742e-05
3.663e-05
8.637e-05
0.0003311
0.0004618
0.0006822
0.0007158
0.0008019
0.0007644
0.0005949
0.0003915
0.0003135
0.000519
0.001202
0.002913
0.00472
0.0056
0.004794
0.007949
0.007807
0.009875
0.01256
0.01533
0.01265
0.01039
0.006101
0.003018
0.001554
0.001238
0.002045
0.001065
0.0004651
9.458e-05
1.635e-05
2.166e-06
1.538e-06
9.084e-07
2.733e-06
1.742e-05
0.0001645
0.0001995
9.55e-05
9.529e-06
3.773e-06
7.492e-06
3.883e-05
0.0001475
0.0002787
0.00034
0.0004172
0.0004349
0.0005133
0.0004276
0.0004603
0.0007379
0.003063
0.01451
0.09022
0.4766
0.8111
0.9274
0.9769
0.9935
0.9978
0.9988
0.9993
0.9996
0.9998
0.9999
1
1
1
1
1
1
1
1
1
1
1
1
1
1
1
1
1
1
1
1
1
1
1
1
1
1
1
1
1
0.9999
0.9999
0.9999
0.9998
0.9998
0.9996
0.9993
0.9984
0.997
0.9954
0.9924
0.9912
0.9918
0.9936
0.9961
0.9977
0.9986
0.9991
0.9996
0.9998
0.9999
0.9999
1
1
1
1
1
1
1
1
1
1
1
1
1
1
1
1
1
1
1
1
1
1
1
1
1
1
1
1
1
1
1
1
3.641e-05
3.165e-05
4.388e-05
2.704e-05
3.936e-05
3.485e-05
2.762e-05
5.359e-05
0.0001072
0.0001043
0.0001343
0.0002273
0.0003282
0.0004515
0.0005252
0.0003175
9.925e-05
3.306e-05
1.526e-05
1.211e-05
3.105e-05
0.0001229
0.0004907
0.001188
0.001924
0.00195
0.002898
0.002825
0.003214
0.003557
0.00466
0.006598
0.009613
0.007476
0.003562
0.001554
0.001006
0.001791
0.001767
0.001781
0.0009316
0.0003168
7.493e-05
5.789e-05
3.437e-05
9.918e-05
0.0003211
0.001609
0.002135
0.0014
0.0003036
0.0001082
9.822e-05
0.0001531
0.0002879
0.0002977
0.0003043
0.0003359
0.0004191
0.0006846
0.001363
0.003547
0.0137
0.1057
0.5405
0.8198
0.9256
0.9771
0.9918
0.9976
0.9993
0.9998
0.9999
0.9999
0.9999
1
1
1
1
1
1
1
1
1
1
1
1
1
1
1
1
1
1
1
1
1
1
1
1
1
1
1
1
1
1
1
1
1
1
1
0.9999
0.9999
0.9999
0.9999
0.9999
0.9999
0.9998
0.9998
0.9998
0.9999
0.9999
1
1
1
1
1
1
1
1
1
1
1
1
1
1
1
1
1
1
1
1
1
1
1
1
1
1
1
1
1
1
1
1
1
1
1
1
1
1
1
9.881e-05
9.41e-05
0.0001533
5.205e-05
4.221e-05
3.533e-05
5.293e-05
0.000189
0.0004516
0.000265
0.0001682
0.0001204
9.878e-05
0.0002721
0.000204
4.229e-05
8.277e-06
1.699e-06
7.441e-07
6.356e-07
2.673e-06
2.39e-05
0.0001685
0.0006492
0.001701
0.001673
0.002268
0.002504
0.00231
0.002344
0.00343
0.006579
0.01252
0.01307
0.006358
0.002434
0.001598
0.002382
0.003321
0.005327
0.00633
0.004131
0.001968
0.001821
0.001128
0.001023
0.001295
0.002731
0.004714
0.006483
0.004381
0.001991
0.001375
0.00077
0.0007561
0.0005272
0.0005525
0.0007498
0.001877
0.003988
0.01818
0.0863
0.4474
0.7994
0.9192
0.9648
0.9888
0.9976
0.9992
0.9998
0.9999
1
1
1
1
1
1
1
1
1
1
1
1
1
1
1
1
1
1
1
1
1
1
1
1
1
1
1
1
1
1
1
1
1
1
1
1
1
1
1
1
1
1
1
1
1
1
1
1
1
1
1
1
1
1
1
1
1
1
1
1
1
1
1
1
1
1
1
1
1
1
1
1
1
1
1
1
1
1
1
1
1
1
1
1
1
1
1
1
1
0.0002183
0.0002364
0.0005797
0.0001776
5.918e-05
3.722e-05
8.837e-05
0.0003427
0.0008569
0.0005028
0.0001856
0.000104
0.0001083
0.0003406
8.397e-05
7.456e-06
1.305e-06
3.159e-07
2.302e-07
2.342e-07
1.31e-06
1.276e-05
0.000112
0.0005928
0.002732
0.002244
0.003325
0.003377
0.00222
0.001748
0.00206
0.004396
0.009609
0.01185
0.007034
0.003816
0.003745
0.00493
0.008191
0.01264
0.01771
0.01706
0.01446
0.0102
0.00535
0.002699
0.002027
0.002727
0.004992
0.007379
0.005827
0.003194
0.002297
0.001442
0.001748
0.001694
0.00261
0.005936
0.02187
0.08437
0.4685
0.7753
0.9217
0.9752
0.9933
0.9982
0.9997
0.9999
1
1
1
1
1
1
1
1
1
1
1
1
1
1
1
1
1
1
1
1
1
1
1
1
1
1
1
1
1
1
1
1
1
1
1
1
1
1
1
1
1
1
1
1
1
1
1
1
1
1
1
1
1
1
1
1
1
1
1
1
1
1
1
1
1
1
1
1
1
1
1
1
1
1
1
1
1
1
1
1
1
1
1
1
1
1
1
1
1
1
1
1
0.000418
0.0005331
0.001054
0.000352
8.948e-05
0.0001061
0.0002339
0.001032
0.001487
0.000723
0.0001884
8.228e-05
8.192e-05
0.000182
1.768e-05
2.089e-06
6.977e-07
4.096e-07
5.761e-07
7.061e-07
3.537e-06
2.145e-05
0.0002158
0.001041
0.004754
0.00338
0.004289
0.00445
0.003387
0.003133
0.003254
0.00536
0.01059
0.0122
0.008018
0.00602
0.007765
0.00989
0.01316
0.01611
0.02254
0.02666
0.03786
0.02967
0.01512
0.005539
0.002421
0.001811
0.002671
0.004415
0.00449
0.00405
0.004531
0.004438
0.006231
0.01218
0.03358
0.09598
0.4682
0.7736
0.9073
0.9687
0.9937
0.9989
0.9998
1
1
1
1
1
1
1
1
1
1
1
1
1
1
1
1
1
1
1
1
1
1
1
1
1
1
1
1
1
1
1
1
1
1
1
1
1
1
1
1
1
1
1
1
1
1
1
1
1
1
1
1
1
1
1
1
1
1
1
1
1
1
1
1
1
1
1
1
1
1
1
1
1
1
1
1
1
1
1
1
1
1
1
1
1
1
1
1
1
1
1
1
1
1
1
0.0004819
0.0007212
0.001056
0.0003773
8.112e-05
0.0001624
0.0005492
0.003197
0.003586
0.001548
0.0003828
0.0001254
7.021e-05
8.934e-05
8.26e-06
1.554e-06
1.827e-06
3.301e-06
7.053e-06
9.279e-06
3.341e-05
0.0001221
0.001042
0.004276
0.0147
0.008697
0.008737
0.006929
0.004845
0.003776
0.004144
0.006539
0.01293
0.0161
0.01214
0.01083
0.01604
0.02151
0.02187
0.01631
0.01368
0.01226
0.01705
0.01694
0.01106
0.00551
0.003387
0.001783
0.001544
0.002251
0.002598
0.003934
0.008517
0.01469
0.02886
0.08999
0.3867
0.721
0.898
0.9617
0.99
0.998
0.9998
1
1
1
1
1
1
1
1
1
1
1
1
1
1
1
1
1
1
1
1
1
1
1
1
1
1
1
1
1
1
1
1
1
1
1
1
1
1
1
1
1
1
1
1
1
1
1
1
1
1
1
1
1
1
1
1
1
1
1
1
1
1
1
1
1
1
1
1
1
1
1
1
1
1
1
1
1
1
1
1
1
1
1
1
1
1
1
1
1
1
1
1
1
1
1
1
1
0.0007926
0.0009221
0.001028
0.0004371
0.0001058
0.0003584
0.001085
0.004794
0.005191
0.003151
0.001002
0.0004219
0.000185
0.0001348
1.775e-05
6.492e-06
1.699e-05
4.775e-05
0.0001123
0.0001435
0.0004278
0.0009777
0.003717
0.009927
0.01807
0.01111
0.008948
0.007448
0.0058
0.004847
0.005274
0.008617
0.01793
0.02561
0.02166
0.01844
0.0208
0.01978
0.01443
0.008196
0.004331
0.003356
0.004207
0.006505
0.008249
0.008157
0.007071
0.003488
0.002471
0.002353
0.003343
0.005704
0.02066
0.04871
0.1906
0.6211
0.839
0.9311
0.9825
0.9968
0.9996
0.9999
1
1
1
1
1
1
1
1
1
1
1
1
1
1
1
1
1
1
1
1
1
0.9999
0.9999
0.9999
0.9997
0.9995
0.9993
0.9994
0.9996
0.9999
0.9999
0.9999
0.9999
1
0.9999
0.9999
1
1
1
1
1
1
1
1
1
1
1
1
1
1
1
1
1
1
1
1
1
1
1
1
1
1
1
1
1
1
1
1
1
1
1
1
1
1
1
1
1
1
1
1
1
1
1
1
1
1
1
1
1
1
1
1
1
1
1
1
1
1
0.001496
0.001525
0.001659
0.0005359
0.0001587
0.0004122
0.0007959
0.003349
0.004818
0.004733
0.00196
0.001603
0.0009184
0.0005608
0.0001174
5.501e-05
0.0001056
0.0002178
0.0004431
0.0009321
0.002391
0.004015
0.007474
0.009356
0.008101
0.00688
0.008538
0.006198
0.004572
0.003358
0.00263
0.003825
0.01038
0.0216
0.02573
0.02346
0.02142
0.01892
0.01283
0.007397
0.00317
0.001889
0.001866
0.002902
0.005128
0.008621
0.01165
0.007272
0.007114
0.00639
0.01087
0.01996
0.09358
0.3013
0.7062
0.8867
0.9669
0.9903
0.9986
0.9998
1
1
1
1
1
1
1
1
1
1
1
1
1
1
1
1
1
1
1
0.9999
0.9993
0.9988
0.998
0.9962
0.9911
0.9908
0.9872
0.9815
0.9795
0.9775
0.9808
0.9918
0.9957
0.9967
0.997
0.9979
0.9977
0.9986
0.9994
0.9998
0.9999
1
1
1
1
1
1
1
1
1
1
1
1
1
1
1
1
1
1
1
1
1
1
1
1
1
1
1
1
1
1
1
1
1
1
1
1
1
1
1
1
1
1
1
1
1
1
1
1
1
1
1
1
1
1
1
1
1
1
1
0.002661
0.002431
0.002398
0.0006512
0.000248
0.00035
0.0003275
0.001372
0.003341
0.005441
0.003651
0.00613
0.003046
0.002047
0.0007317
0.000495
0.0006153
0.0008482
0.0009393
0.001891
0.004862
0.006376
0.008079
0.006256
0.004286
0.004897
0.01016
0.009297
0.006718
0.004481
0.002419
0.002574
0.005517
0.01545
0.02975
0.03643
0.03425
0.02486
0.01517
0.009
0.004333
0.00232
0.001911
0.002747
0.004002
0.008168
0.01476
0.0143
0.02345
0.03904
0.09844
0.3209
0.7542
0.8938
0.9705
0.9911
0.9983
0.9996
0.9999
1
1
1
1
1
1
1
1
1
1
1
1
1
1
1
0.9999
0.9999
0.9999
0.9998
0.9991
0.9962
0.9826
0.9657
0.9497
0.9084
0.8115
0.7527
0.713
0.6857
0.6632
0.6267
0.6161
0.6599
0.7323
0.7932
0.8411
0.8891
0.931
0.9655
0.9864
0.9936
0.9976
0.999
0.9998
0.9999
0.9999
0.9999
1
1
1
1
1
1
1
1
1
1
1
1
1
1
1
1
1
1
1
1
1
1
1
1
1
1
1
1
1
1
1
1
1
1
1
1
1
1
1
1
1
1
1
1
1
1
1
1
1
1
1
1
1
1
0.003664
0.003234
0.003776
0.0009319
0.0004296
0.000173
8.306e-05
0.0003373
0.001906
0.006154
0.0104
0.01879
0.009019
0.006644
0.00321
0.002391
0.001524
0.00165
0.001206
0.002191
0.003759
0.004122
0.005102
0.003692
0.004609
0.007357
0.01807
0.01728
0.01301
0.006776
0.003126
0.002162
0.003195
0.009971
0.02719
0.04981
0.05504
0.03279
0.01828
0.01179
0.006909
0.004678
0.004231
0.004741
0.006322
0.01163
0.02369
0.0391
0.09302
0.2432
0.5967
0.8353
0.9582
0.9878
0.9982
0.9997
1
1
1
1
1
1
1
1
1
1
1
1
1
1
1
1
1
0.9998
0.9988
0.9984
0.9967
0.9904
0.9739
0.9188
0.7799
0.6236
0.546
0.4628
0.3342
0.2288
0.1666
0.1461
0.1192
0.09907
0.08444
0.07605
0.0908
0.1281
0.1854
0.2586
0.468
0.6747
0.8305
0.9078
0.9592
0.9743
0.9915
0.9948
0.9962
0.9974
0.9994
0.9998
1
1
1
1
1
1
1
1
1
1
1
1
1
1
1
1
1
1
1
1
1
1
1
1
1
1
1
1
1
1
1
1
1
1
1
1
1
1
1
1
1
1
1
1
1
1
1
1
1
0.9999
0.9997
0.9987
0.002732
0.002728
0.003453
0.0009367
0.0007754
0.0001738
7.48e-05
0.0001931
0.001326
0.003592
0.01019
0.01688
0.01033
0.008704
0.005863
0.005527
0.003623
0.003125
0.002728
0.002695
0.003332
0.003068
0.003197
0.002492
0.003234
0.004573
0.0114
0.01447
0.01559
0.01061
0.004455
0.001818
0.001523
0.003194
0.01055
0.02759
0.03877
0.02301
0.01324
0.01027
0.009945
0.01044
0.01267
0.01398
0.01837
0.03546
0.08226
0.2094
0.5338
0.7778
0.9093
0.9702
0.9934
0.9983
0.9998
1
1
1
1
1
1
1
1
1
1
1
1
1
1
1
1
0.9999
0.9996
0.9969
0.9861
0.9674
0.9127
0.7782
0.5809
0.2787
0.1633
0.1149
0.08114
0.0505
0.02612
0.01376
0.009258
0.01136
0.01175
0.01346
0.01061
0.008513
0.01043
0.01776
0.02956
0.04634
0.07122
0.09419
0.1463
0.2217
0.3297
0.4968
0.813
0.9095
0.9473
0.9695
0.9886
0.9956
0.9991
0.9995
0.9995
0.9996
0.9998
1
1
1
1
1
1
1
1
1
1
1
1
1
1
1
1
1
1
1
1
1
1
1
1
1
1
1
1
1
1
1
1
1
1
1
1
1
1
1
1
1
0.9999
0.9997
0.9986
0.9923
0.9736
0.9205
0.002125
0.002866
0.004774
0.001196
0.001125
0.000149
6.786e-05
0.0001129
0.0014
0.0028
0.00802
0.008636
0.006835
0.006544
0.004556
0.004333
0.004111
0.004585
0.00506
0.003255
0.001984
0.001208
0.001496
0.002119
0.003602
0.003668
0.00686
0.009222
0.009974
0.007209
0.003575
0.001296
0.0009313
0.00192
0.006121
0.01804
0.0297
0.02166
0.0135
0.01233
0.01616
0.02104
0.02926
0.03412
0.04869
0.09307
0.2645
0.5871
0.8076
0.9223
0.9732
0.9921
0.9982
0.9995
0.9999
1
1
1
1
1
1
1
1
1
1
1
1
1
1
0.9998
0.9989
0.9948
0.9812
0.928
0.8101
0.6382
0.4139
0.1851
0.07319
0.03135
0.01253
0.007556
0.005041
0.003287
0.001884
0.001399
0.0008565
0.001429
0.002337
0.0032
0.00264
0.002271
0.002877
0.005724
0.01037
0.01675
0.02275
0.02621
0.03786
0.05903
0.08226
0.1083
0.1565
0.2364
0.3659
0.5769
0.795
0.9104
0.9668
0.9795
0.9885
0.9963
0.9991
0.9998
1
1
1
1
1
1
1
1
1
1
1
1
1
1
1
1
1
1
1
1
1
1
1
1
1
1
1
1
1
1
1
1
1
1
1
1
0.9999
0.9998
0.9992
0.997
0.9896
0.9666
0.8972
0.7213
0.5058
0.2576
0.002287
0.003711
0.007993
0.001781
0.001323
0.0001468
9.343e-05
0.0001591
0.001072
0.001767
0.004395
0.005048
0.006578
0.006513
0.003287
0.002995
0.004307
0.00804
0.009479
0.003784
0.0009979
0.0004459
0.0006784
0.001445
0.003607
0.003756
0.00447
0.006131
0.006805
0.004805
0.002792
0.001132
0.0008131
0.001661
0.004182
0.01103
0.0165
0.01288
0.009854
0.01144
0.01905
0.02908
0.04389
0.05796
0.1067
0.3256
0.69
0.8803
0.964
0.9895
0.9966
0.9987
0.9996
0.9999
1
1
1
1
1
1
1
1
1
1
1
1
1
0.9999
0.9993
0.995
0.9761
0.9301
0.8218
0.6071
0.2418
0.06768
0.02775
0.01246
0.005299
0.003063
0.00171
0.001349
0.0009373
0.0006541
0.0003492
0.0004148
0.0003277
0.000627
0.001107
0.00195
0.001656
0.001356
0.001517
0.002868
0.004923
0.0081
0.01018
0.009991
0.01509
0.02333
0.03357
0.04284
0.06123
0.08767
0.09375
0.1215
0.2016
0.3834
0.5717
0.6922
0.8568
0.9792
0.9977
0.9997
1
1
1
1
1
1
1
1
1
1
1
1
1
1
1
1
1
1
1
1
1
1
1
1
1
1
1
1
1
1
1
1
0.9999
0.9998
0.9994
0.998
0.9939
0.9762
0.9248
0.7985
0.5753
0.331
0.1697
0.08044
0.04258
0.01204
0.001584
0.002788
0.008562
0.002121
0.001403
0.0001853
0.0001214
0.0002206
0.001363
0.001644
0.002245
0.002803
0.005955
0.007273
0.002624
0.001571
0.001753
0.004584
0.007983
0.004852
0.0008841
0.0003426
0.0004145
0.001182
0.00336
0.003772
0.003696
0.004549
0.004003
0.002671
0.0017
0.001135
0.001127
0.002943
0.005828
0.01002
0.01055
0.008249
0.005998
0.007143
0.01182
0.02102
0.0458
0.1177
0.3899
0.7365
0.8935
0.9709
0.9939
0.999
0.9998
0.9999
1
1
1
1
1
1
1
1
1
1
1
1
1
0.9999
0.999
0.9958
0.9844
0.9275
0.7763
0.5343
0.1329
0.04922
0.02213
0.009021
0.004444
0.002757
0.001567
0.001324
0.0009529
0.0008286