/*--------------------------------*- C++ -*----------------------------------*\
| =========                 |                                                 |
| \\      /  F ield         | OpenFOAM: The Open Source CFD Toolbox           |
|  \\    /   O peration     | Version:  5.x                                   |
|   \\  /    A nd           | Web:      www.OpenFOAM.org                      |
|    \\/     M anipulation  |                                                 |
\*---------------------------------------------------------------------------*/
FoamFile
{
    version     2.0;
    format      ascii;
    class       volScalarField;
    location    "85";
    object      gamma;
}
// * * * * * * * * * * * * * * * * * * * * * * * * * * * * * * * * * * * * * //

dimensions      [0 0 0 0 0 0 0];

internalField   nonuniform List<scalar> 
86400
(
0.0001146
0.0001428
0.0002039
0.0003449
0.0006116
0.0009835
0.001332
0.001868
0.002879
0.004329
0.006973
0.01089
0.01746
0.02474
0.03224
0.0345
0.03482
0.02621
0.02048
0.01741
0.01569
0.01437
0.01469
0.01335
0.01274
0.01528
0.0163
0.01696
0.01618
0.0157
0.0152
0.01599
0.01695
0.01781
0.01881
0.02075
0.02037
0.01868
0.01525
0.01353
0.01207
0.01222
0.01162
0.01051
0.01041
0.01129
0.01327
0.01466
0.01562
0.01504
0.01504
0.01531
0.01554
0.01552
0.01533
0.01586
0.01668
0.01717
0.01728
0.01702
0.0158
0.01565
0.01484
0.01497
0.01656
0.0191
0.02148
0.02269
0.02052
0.0191
0.01986
0.0215
0.02365
0.02194
0.02026
0.01834
0.01649
0.01674
0.01904
0.02165
0.02626
0.02904
0.02887
0.02787
0.02749
0.02592
0.02627
0.02582
0.0264
0.02706
0.02621
0.02852
0.03196
0.03886
0.04267
0.04468
0.0409
0.03923
0.03825
0.03725
0.03614
0.03687
0.03393
0.02943
0.02201
0.02061
0.02252
0.03118
0.03718
0.04148
0.03858
0.03697
0.034
0.02941
0.02323
0.01981
0.01848
0.01807
0.01705
0.01569
0.0146
0.0138
0.01396
0.01384
0.01367
0.01361
0.01337
0.01298
0.01219
0.01092
0.009303
0.00895
0.009152
0.009931
0.01095
0.01224
0.01329
0.01454
0.01052
0.005895
0.003707
0.00393
0.005346
0.007764
0.007516
0.005727
0.004815
0.005504
0.006671
0.007454
0.007706
0.008356
0.01065
0.01183
0.01267
0.01353
0.01318
0.01527
0.356
0.9739
0.0001509
0.000171
0.0002283
0.0003444
0.0005899
0.0009706
0.00139
0.002037
0.003073
0.00416
0.006624
0.01068
0.01788
0.02707
0.03619
0.03717
0.03426
0.02762
0.02452
0.02395
0.026
0.02884
0.03088
0.02897
0.02685
0.02603
0.02331
0.02012
0.01739
0.01548
0.01483
0.01664
0.01929
0.02225
0.02512
0.02811
0.02848
0.0277
0.02507
0.0233
0.02097
0.02035
0.01942
0.01794
0.01741
0.01839
0.01974
0.02103
0.0222
0.02231
0.02321
0.0245
0.02568
0.02639
0.02606
0.02441
0.0225
0.02082
0.01939
0.01876
0.0181
0.01834
0.01758
0.01795
0.01996
0.0246
0.02788
0.02974
0.02768
0.02674
0.028
0.0287
0.02774
0.02407
0.02141
0.02089
0.02353
0.02807
0.03278
0.03537
0.03965
0.04253
0.04537
0.04729
0.04906
0.04819
0.04953
0.0489
0.05063
0.05328
0.05394
0.05777
0.06087
0.06269
0.06177
0.05966
0.0542
0.05041
0.04705
0.04606
0.04657
0.05081
0.05309
0.04772
0.03541
0.03083
0.03171
0.03815
0.04701
0.0535
0.05026
0.04987
0.0507
0.05008
0.04667
0.04379
0.04233
0.04211
0.04003
0.03603
0.03323
0.03097
0.03069
0.03055
0.03029
0.03024
0.02954
0.02842
0.02618
0.02314
0.01957
0.01891
0.01946
0.02256
0.02577
0.02799
0.02836
0.02816
0.02132
0.01377
0.01132
0.01173
0.01322
0.01648
0.01742
0.0153
0.01454
0.01699
0.02081
0.02139
0.01979
0.01908
0.02183
0.0267
0.03797
0.0588
0.08995
0.173
0.5695
0.926
0.0002346
0.0002524
0.0003041
0.0004088
0.0006727
0.001093
0.001573
0.002335
0.00329
0.004413
0.006942
0.0118
0.0205
0.03255
0.04246
0.04223
0.03838
0.03284
0.02995
0.03128
0.03397
0.03922
0.04267
0.04008
0.03949
0.04174
0.03935
0.0344
0.02938
0.0247
0.02389
0.02819
0.03259
0.03536
0.03563
0.0352
0.03341
0.03255
0.03032
0.02899
0.027
0.0267
0.02548
0.02488
0.02505
0.02706
0.02897
0.03092
0.03308
0.03088
0.02765
0.02429
0.02171
0.02048
0.02105
0.02016
0.01945
0.01861
0.01849
0.01869
0.01929
0.02032
0.02035
0.02226
0.02436
0.0273
0.02994
0.03184
0.03062
0.03006
0.03064
0.02872
0.02638
0.02497
0.02572
0.03206
0.0427
0.05372
0.0615
0.06596
0.07039
0.07328
0.07728
0.08151
0.08751
0.08708
0.08851
0.08717
0.08279
0.07708
0.06812
0.06024
0.05781
0.06
0.06114
0.0617
0.06009
0.05462
0.05109
0.05162
0.05404
0.0599
0.06475
0.05804
0.0448
0.04054
0.04395
0.05355
0.06837
0.07458
0.0726
0.07795
0.08457
0.08746
0.08363
0.0802
0.07517
0.07243
0.06615
0.05856
0.05214
0.04957
0.0489
0.04884
0.0486
0.04868
0.04771
0.046
0.04207
0.03764
0.03287
0.032
0.03284
0.03714
0.04351
0.04821
0.04999
0.05004
0.04286
0.03416
0.03143
0.03229
0.03524
0.04035
0.04266
0.03865
0.0361
0.03829
0.04375
0.04349
0.04297
0.04223
0.05396
0.07747
0.14
0.3008
0.5481
0.75
0.8695
0.9574
0.0004449
0.0004481
0.0004958
0.000608
0.0009183
0.001356
0.001798
0.002474
0.003355
0.004565
0.00725
0.008193
0.009829
0.0123
0.01664
0.01836
0.02239
0.01627
0.01078
0.009033
0.009068
0.009827
0.0128
0.01478
0.01721
0.02224
0.02611
0.02666
0.02653
0.02502
0.02522
0.03215
0.03959
0.04451
0.04359
0.04066
0.03738
0.03751
0.03683
0.03773
0.03839
0.0413
0.04463
0.04834
0.04464
0.03927
0.03239
0.02748
0.0257
0.0231
0.01917
0.01649
0.01555
0.01477
0.01548
0.01438
0.01305
0.01287
0.01515
0.01795
0.02088
0.0238
0.02553
0.02767
0.02956
0.03139
0.03219
0.03282
0.03176
0.03562
0.04047
0.03913
0.03889
0.04095
0.04239
0.05773
0.08029
0.09743
0.1018
0.1075
0.1082
0.1104
0.1176
0.1218
0.1223
0.1182
0.1152
0.1134
0.1123
0.1138
0.1102
0.0976
0.09134
0.08891
0.08489
0.0815
0.0805
0.07117
0.06668
0.06921
0.07605
0.08772
0.101
0.09478
0.07479
0.06032
0.05655
0.063
0.07231
0.07629
0.07402
0.07667
0.07947
0.0932
0.1028
0.1159
0.1207
0.1258
0.1151
0.1032
0.0902
0.08768
0.08639
0.08666
0.0867
0.08732
0.08627
0.08443
0.07977
0.07405
0.06737
0.0671
0.07074
0.07447
0.07845
0.07675
0.07183
0.06556
0.06625
0.06695
0.07101
0.07295
0.07581
0.07939
0.08701
0.09016
0.09338
0.09976
0.116
0.1203
0.1334
0.1487
0.206
0.3425
0.5904
0.7798
0.8922
0.9561
0.9834
0.995
0.0009639
0.0009676
0.001041
0.001232
0.001626
0.002052
0.002218
0.002717
0.003466
0.004202
0.005748
0.00389
0.0024
0.002368
0.003991
0.005843
0.01209
0.007798
0.003973
0.002586
0.002793
0.003279
0.004852
0.005081
0.006432
0.01083
0.0199
0.03155
0.04187
0.0359
0.02773
0.02668
0.02554
0.0249
0.02446
0.02258
0.01962
0.02211
0.02759
0.03615
0.03775
0.03329
0.02436
0.0194
0.01445
0.01153
0.01013
0.01061
0.01313
0.01535
0.0141
0.01143
0.012
0.01284
0.01409
0.01267
0.01068
0.01107
0.01459
0.02057
0.02791
0.03518
0.04186
0.04544
0.04361
0.03748
0.03457
0.03169
0.02967
0.03292
0.03915
0.03912
0.04539
0.05735
0.0695
0.09165
0.124
0.1383
0.1394
0.1546
0.1572
0.1583
0.1649
0.1679
0.1655
0.1616
0.1581
0.1566
0.1603
0.1689
0.1611
0.1457
0.1395
0.1355
0.1385
0.1331
0.1289
0.1112
0.1048
0.1026
0.09769
0.09649
0.1067
0.1065
0.09734
0.08975
0.08491
0.08854
0.09092
0.08741
0.07662
0.07311
0.07063
0.08643
0.09042
0.09557
0.09094
0.09041
0.07788
0.07507
0.06959
0.06999
0.06873
0.06878
0.06894
0.06966
0.06987
0.07056
0.07036
0.06968
0.0684
0.06868
0.07096
0.06874
0.06763
0.0638
0.06176
0.06212
0.07009
0.07736
0.0879
0.09626
0.1038
0.1149
0.1337
0.1448
0.156
0.1666
0.2042
0.243
0.3367
0.4642
0.6024
0.7325
0.8497
0.9256
0.9685
0.9887
0.9961
0.9987
0.001778
0.001897
0.002147
0.002664
0.003094
0.003141
0.002876
0.003
0.003562
0.003906
0.004743
0.002095
0.0007492
0.0004702
0.001126
0.002063
0.005746
0.004162
0.002089
0.001279
0.00174
0.002211
0.003334
0.002637
0.00256
0.003344
0.005349
0.0105
0.01861
0.01763
0.0128
0.01047
0.00918
0.008951
0.0106
0.01089
0.008318
0.008012
0.009291
0.009349
0.006903
0.004903
0.00252
0.001482
0.0009754
0.0005918
0.0003654
0.0004075
0.0006659
0.001124
0.001445
0.00178
0.002571
0.004552
0.006389
0.005841
0.00415
0.003936
0.005472
0.01001
0.01709
0.02482
0.02907
0.03268
0.03229
0.02747
0.03007
0.03188
0.03403
0.04285
0.06035
0.0652
0.08115
0.1025
0.1164
0.1399
0.1735
0.1966
0.2144
0.2557
0.2823
0.3036
0.3205
0.3276
0.3201
0.3118
0.3128
0.3237
0.3532
0.3927
0.4244
0.4074
0.4041
0.3977
0.3861
0.3648
0.3305
0.2723
0.247
0.2231
0.195
0.1718
0.167
0.157
0.1476
0.1311
0.1039
0.09959
0.09443
0.08546
0.06407
0.05238
0.04308
0.05119
0.05585
0.06108
0.05847
0.05573
0.04891
0.0482
0.04477
0.04451
0.04373
0.04381
0.04425
0.04512
0.04661
0.0496
0.05307
0.05674
0.05972
0.06333
0.06966
0.07054
0.07229
0.06835
0.07051
0.07481
0.08804
0.09912
0.1133
0.1281
0.1456
0.1705
0.2106
0.2487
0.2992
0.3711
0.4697
0.5678
0.677
0.7632
0.8403
0.9003
0.9467
0.9748
0.9897
0.996
0.9985
0.9995
0.002981
0.003311
0.003872
0.004614
0.005099
0.004808
0.004199
0.00412
0.004892
0.004442
0.004004
0.001429
0.0003332
0.0002048
0.0004505
0.001173
0.00481
0.006482
0.004036
0.003031
0.004854
0.005591
0.007214
0.004468
0.00312
0.003139
0.004242
0.006843
0.01244
0.01238
0.009408
0.006169
0.005195
0.005574
0.007399
0.007916
0.005201
0.00412
0.004636
0.003803
0.001837
0.0007876
0.0002236
8.456e-05
4.995e-05
2.142e-05
1.248e-05
1.774e-05
4.795e-05
0.0001267
0.0002412
0.0002634
0.0002842
0.0003928
0.0004111
0.000468
0.0005778
0.0009948
0.002307
0.005808
0.01069
0.01781
0.02384
0.03314
0.03844
0.03275
0.0383
0.04337
0.05227
0.06764
0.1107
0.1255
0.176
0.2242
0.253
0.2886
0.3417
0.3815
0.4065
0.4552
0.4932
0.5269
0.557
0.5828
0.6111
0.6376
0.6703
0.7006
0.7342
0.7582
0.7685
0.7648
0.7648
0.7573
0.7447
0.7287
0.6989
0.6526
0.6161
0.5514
0.4499
0.3237
0.2655
0.2532
0.2524
0.2268
0.182
0.1644
0.1446
0.1194
0.09158
0.06984
0.05375
0.05799
0.06051
0.05842
0.05155
0.04703
0.04178
0.04223
0.04026
0.03987
0.03973
0.04024
0.04142
0.04301
0.04531
0.04932
0.05481
0.06135
0.06789
0.07574
0.08739
0.09341
0.1022
0.1148
0.1323
0.1541
0.1931
0.227
0.2636
0.313
0.3771
0.4484
0.5267
0.5926
0.6547
0.7111
0.7656
0.8164
0.8644
0.9071
0.9441
0.9684
0.9841
0.9924
0.9965
0.9983
0.9992
0.9996
0.005876
0.006189
0.006834
0.007759
0.008234
0.00736
0.006633
0.006587
0.006078
0.003452
0.002323
0.0007597
0.0001775
0.000154
0.0004092
0.001387
0.006779
0.01413
0.01268
0.01408
0.01852
0.01971
0.02196
0.01404
0.008869
0.005279
0.003894
0.004279
0.00657
0.007423
0.006878
0.005876
0.005209
0.006278
0.009138
0.0108
0.007321
0.005799
0.005619
0.002448
0.0006662
0.0001439
3.032e-05
1.021e-05
9.155e-06
4.425e-06
2.656e-06
3.198e-06
5.043e-06
1.219e-05
2.606e-05
2.948e-05
3.738e-05
5.865e-05
5.985e-05
6.624e-05
0.0001124
0.0003
0.001013
0.003662
0.008266
0.01551
0.02449
0.04291
0.05586
0.05273
0.06078
0.07197
0.09451
0.1444
0.2514
0.3113
0.3978
0.4478
0.4718
0.4983
0.5352
0.5855
0.6156
0.6486
0.6703
0.6937
0.7215
0.7565
0.7979
0.8378
0.8874
0.9251
0.9453
0.9529
0.9517
0.9431
0.9363
0.9328
0.9286
0.9235
0.909
0.8842
0.8503
0.796
0.7182
0.6431
0.5779
0.5226
0.4757
0.4015
0.3055
0.2638
0.2415
0.2158
0.1868
0.1385
0.1104
0.1098
0.1073
0.09595
0.08901
0.08042
0.07418
0.07671
0.07525
0.07354
0.07424
0.07741
0.0824
0.08844
0.09616
0.1074
0.1222
0.1399
0.1593
0.1828
0.2158
0.2456
0.284
0.3372
0.3988
0.4568
0.52
0.5691
0.6156
0.6634
0.7069
0.7462
0.7855
0.8255
0.8636
0.8954
0.9208
0.9392
0.9563
0.972
0.9844
0.9917
0.9959
0.9978
0.9987
0.9993
0.9996
0.9997
0.0118
0.01125
0.0109
0.0112
0.01112
0.0098
0.009938
0.007536
0.004462
0.001847
0.0008317
0.0003678
0.0001938
0.0002977
0.0009301
0.00264
0.005316
0.007237
0.006112
0.006733
0.01196
0.02342
0.03941
0.04182
0.03551
0.01882
0.009416
0.006134
0.006502
0.007578
0.008974
0.008081
0.006331
0.007034
0.008977
0.01059
0.008112
0.006895
0.007321
0.001817
0.0002788
3.526e-05
6.001e-06
2.611e-06
5.484e-06
4.508e-06
3.278e-06
3.164e-06
3.136e-06
3.836e-06
8.629e-06
1.271e-05
2.224e-05
2.798e-05
2.177e-05
1.628e-05
3.025e-05
0.0001166
0.0006089
0.003373
0.01028
0.02083
0.03623
0.06649
0.0921
0.0923
0.1096
0.1455
0.1885
0.2872
0.4371
0.4947
0.5391
0.5734
0.6131
0.6703
0.7177
0.7656
0.7906
0.8056
0.8175
0.8338
0.856
0.8844
0.9155
0.9415
0.9672
0.9825
0.9881
0.9891
0.987
0.9815
0.9769
0.9766
0.9792
0.98
0.977
0.9677
0.9486
0.9095
0.8616
0.8138
0.7661
0.7127
0.6638
0.6141
0.5752
0.5535
0.5525
0.5441
0.5423
0.5086
0.4704
0.4035
0.3215
0.2427
0.2074
0.1853
0.1777
0.1758
0.1711
0.17
0.1768
0.1909
0.2109
0.235
0.2664
0.3081
0.3611
0.4178
0.4717
0.523
0.574
0.6278
0.6804
0.7277
0.7651
0.7927
0.8138
0.8345
0.8558
0.8777
0.8972
0.9133
0.9281
0.9422
0.9551
0.9655
0.9737
0.9792
0.986
0.9919
0.9959
0.9979
0.9988
0.9992
0.9995
0.9997
0.9998
0.9998
0.01978
0.01736
0.01649
0.01648
0.01546
0.01244
0.009028
0.004183
0.001726
0.0007346
0.0003459
0.0003001
0.000345
0.0008049
0.002565
0.004772
0.004103
0.002231
0.001137
0.0009773
0.002016
0.006333
0.01983
0.04009
0.04662
0.02637
0.01176
0.007015
0.006316
0.009153
0.01276
0.01119
0.007229
0.006252
0.005861
0.007697
0.009532
0.01099
0.01012
0.001795
0.0001998
1.974e-05
3.995e-06
2.68e-06
9.246e-06
1.317e-05
9.325e-06
5.335e-06
2.1e-06
1.344e-06
3.312e-06
8.089e-06
2.513e-05
4.085e-05
2.125e-05
9.853e-06
1.731e-05
7.775e-05
0.0007297
0.005762
0.01781
0.03566
0.05629
0.1008
0.1453
0.1657
0.1982
0.2743
0.3683
0.5194
0.6203
0.6751
0.7061
0.7376
0.7627
0.7941
0.8203
0.8472
0.8633
0.8747
0.885
0.8981
0.9203
0.9451
0.9669
0.9814
0.9915
0.9961
0.9977
0.9979
0.9971
0.9954
0.9938
0.9932
0.9937
0.9935
0.9918
0.9868
0.977
0.9562
0.9348
0.9136
0.8905
0.8569
0.8157
0.7739
0.7463
0.7285
0.73
0.7388
0.7516
0.7534
0.7371
0.6858
0.6317
0.5789
0.5647
0.5671
0.5766
0.569
0.5665
0.5733
0.5909
0.6157
0.6433
0.6706
0.6983
0.7253
0.7502
0.7718
0.7932
0.814
0.8344
0.854
0.8726
0.8883
0.9019
0.9134
0.9237
0.9341
0.9444
0.9542
0.9623
0.9686
0.9743
0.9795
0.9841
0.9877
0.9905
0.9921
0.9951
0.9974
0.9988
0.9993
0.9996
0.9996
0.9997
0.9998
0.9998
0.9997
0.02419
0.02058
0.02019
0.02126
0.01868
0.01302
0.005522
0.001734
0.0005869
0.0003079
0.0002235
0.0003471
0.0007609
0.002368
0.00456
0.005565
0.002208
0.0004719
0.0001553
0.0001353
0.0004015
0.001817
0.01015
0.02875
0.04287
0.02944
0.01955
0.01316
0.01108
0.01417
0.01549
0.009606
0.004162
0.002163
0.001844
0.002419
0.004425
0.007668
0.00828
0.002175
0.0003127
3.561e-05
8.988e-06
7.475e-06
2.056e-05
2.919e-05
2.303e-05
1.098e-05
3.414e-06
1.88e-06
4.36e-06
1.457e-05
7.415e-05
0.0001494
8.172e-05
3.695e-05
6.609e-05
0.0003047
0.002841
0.02163
0.06078
0.09753
0.1455
0.2363
0.3367
0.4092
0.4637
0.5232
0.5783
0.6514
0.709
0.7605
0.7932
0.8188
0.837
0.8562
0.8745
0.8932
0.9117
0.9288
0.9437
0.9569
0.9713
0.9826
0.9908
0.9953
0.998
0.999
0.9994
0.9994
0.9992
0.9988
0.9982
0.9975
0.9972
0.9965
0.9954
0.9921
0.9871
0.9753
0.9641
0.9527
0.9418
0.9275
0.9114
0.8951
0.8829
0.8726
0.867
0.8668
0.8736
0.8759
0.8696
0.8449
0.8121
0.7815
0.7749
0.7768
0.7838
0.7822
0.7845
0.7912
0.8026
0.8172
0.8335
0.8488
0.8636
0.8774
0.8898
0.9
0.9106
0.9209
0.9312
0.9405
0.9486
0.955
0.9606
0.9653
0.9697
0.9742
0.9787
0.9827
0.9859
0.9884
0.9904
0.9923
0.9939
0.9951
0.996
0.9964
0.9977
0.9987
0.9993
0.9996
0.9997
0.9997
0.9998
0.9998
0.9997
0.9995
0.02493
0.02253
0.0229
0.02069
0.01299
0.006935
0.002322
0.0007914
0.0003557
0.0003969
0.0004215
0.001083
0.00279
0.005314
0.006269
0.005467
0.00149
0.0002522
6.915e-05
4.951e-05
0.0001614
0.001283
0.01101
0.02985
0.03999
0.02627
0.0204
0.01602
0.01594
0.0197
0.01791
0.009139
0.002933
0.001309
0.0008654
0.001092
0.002233
0.003949
0.004217
0.001554
0.0003052
6.443e-05
2.319e-05
2.059e-05
3.212e-05
3.235e-05
2.348e-05
8.803e-06
2.353e-06
1.407e-06
3.335e-06
1.93e-05
0.0001945
0.0007756
0.0007359
0.000446
0.0006511
0.002197
0.01168
0.05368
0.1143
0.1642
0.2366
0.3574
0.4685
0.5562
0.6173
0.6707
0.7171
0.7611
0.7971
0.8276
0.8521
0.8688
0.8814
0.8948
0.9105
0.9317
0.9546
0.969
0.978
0.9837
0.9896
0.9943
0.9975
0.9989
0.9995
0.9997
0.9998
0.9998
0.9998
0.9996
0.9993
0.9988
0.9981
0.9968
0.9953
0.9931
0.9901
0.9841
0.9793
0.9745
0.9698
0.9636
0.9565
0.9493
0.9431
0.9363
0.9307
0.9276
0.9262
0.9239
0.919
0.9065
0.8922
0.8807
0.8779
0.8811
0.8871
0.8889
0.8925
0.8977
0.9045
0.9124
0.9212
0.9299
0.9383
0.946
0.9525
0.9575
0.9622
0.9665
0.9709
0.975
0.9787
0.9817
0.9843
0.9865
0.9884
0.9903
0.9919
0.9933
0.9944
0.9953
0.9959
0.9966
0.9972
0.9976
0.9979
0.998
0.9986
0.999
0.9994
0.9996
0.9997
0.9997
0.9997
0.9997
0.9995
0.999
0.02277
0.02291
0.0226
0.01674
0.008207
0.003674
0.001186
0.0005417
0.0004564
0.0006127
0.0009949
0.002674
0.004951
0.00611
0.006481
0.004539
0.001636
0.000313
8.591e-05
4.94e-05
0.00014
0.0009838
0.008466
0.02326
0.03611
0.03002
0.03043
0.02919
0.03068
0.03321
0.02633
0.01339
0.005348
0.002478
0.001442
0.00149
0.002644
0.003929
0.003883
0.002053
0.0007785
0.0002496
0.0001343
0.0001023
7.97e-05
6.873e-05
4.227e-05
2.492e-05
1.083e-05
9.898e-06
2.071e-05
8.334e-05
0.0005491
0.002025
0.002958
0.003282
0.006667
0.01604
0.0543
0.1426
0.2136
0.2824
0.3984
0.5224
0.6147
0.687
0.7339
0.7716
0.8014
0.8289
0.8519
0.8717
0.8863
0.8953
0.9082
0.9239
0.941
0.9638
0.98
0.9875
0.9924
0.9948
0.9969
0.9984
0.9993
0.9997
0.9998
0.9999
0.9999
0.9999
0.9999
0.9998
0.9995
0.9989
0.9978
0.9961
0.9945
0.9929
0.9914
0.9887
0.9868
0.9845
0.9823
0.9794
0.9762
0.9726
0.9691
0.9651
0.9613
0.9577
0.9544
0.9507
0.9466
0.9403
0.935
0.9321
0.9326
0.9358
0.9397
0.942
0.9448
0.9479
0.9525
0.9579
0.9634
0.9685
0.9729
0.9765
0.9796
0.9818
0.984
0.986
0.9881
0.9898
0.9914
0.9925
0.9936
0.9944
0.9951
0.9958
0.9964
0.9969
0.9973
0.9976
0.9979
0.9981
0.9984
0.9985
0.9986
0.9986
0.9988
0.9989
0.9991
0.9993
0.9995
0.9995
0.9996
0.9994
0.9989
0.998
0.02182
0.02401
0.0238
0.01392
0.005922
0.0024
0.001109
0.0008071
0.001451
0.001876
0.002852
0.004511
0.005401
0.004598
0.004538
0.003907
0.002754
0.000715
0.0002276
0.0001032
0.0002176
0.001067
0.006849
0.0161
0.02325
0.02348
0.02936
0.03598
0.04058
0.04266
0.03544
0.0236
0.01351
0.007986
0.004598
0.003954
0.004941
0.006155
0.006285
0.005098
0.003005
0.001497
0.001046
0.000815
0.0004689
0.0004084
0.0003012
0.0002199
0.0001185
0.0001073
0.0001363
0.0003301
0.001185
0.003753
0.007467
0.01512
0.04278
0.09931
0.196
0.2973
0.338
0.4284
0.5549
0.6653
0.7346
0.7809
0.8075
0.8322
0.852
0.8684
0.8804
0.8937
0.9024
0.9088
0.923
0.941
0.9586
0.9782
0.9889
0.9933
0.9957
0.997
0.9981
0.9989
0.9996
0.9998
0.9999
0.9999
0.9999
0.9999
0.9999
0.9998
0.9995
0.9986
0.9972
0.995
0.9934
0.9924
0.9918
0.991
0.99
0.9888
0.9876
0.9862
0.9845
0.9826
0.9804
0.9781
0.9756
0.9729
0.97
0.9669
0.9641
0.9621
0.9611
0.9609
0.9616
0.9631
0.965
0.9675
0.9704
0.9734
0.9769
0.9801
0.9829
0.9854
0.9875
0.9893
0.9908
0.9919
0.9929
0.9938
0.9946
0.9953
0.9959
0.9964
0.9968
0.9972
0.9975
0.9978
0.998
0.9982
0.9984
0.9985
0.9986
0.9987
0.9988
0.9989
0.9989
0.9988
0.9988
0.9988
0.9989
0.9992
0.9994
0.9995
0.9994
0.9991
0.9982
0.9967
0.0227
0.02626
0.02685
0.01144
0.004696
0.001987
0.001599
0.002271
0.005463
0.005005
0.005668
0.003642
0.003541
0.002381
0.00268
0.001975
0.001033
0.0002006
5.389e-05
2.507e-05
5.374e-05
0.0002717
0.001902
0.004842
0.009508
0.01201
0.01611
0.02368
0.03039
0.03215
0.02914
0.02433
0.0207
0.017
0.01256
0.01021
0.01131
0.01266
0.01405
0.01528
0.01035
0.007015
0.005219
0.004792
0.003121
0.003496
0.003028
0.002625
0.001707
0.001728
0.001702
0.002358
0.005605
0.01558
0.03925
0.08838
0.1848
0.2761
0.3382
0.3897
0.4546
0.5476
0.6508
0.7341
0.7861
0.8214
0.8451
0.866
0.8799
0.8891
0.8934
0.9002
0.9059
0.9134
0.927
0.9455
0.9636
0.981
0.9898
0.9936
0.9956
0.9974
0.9986
0.9991
0.9996
0.9998
0.9999
0.9999
0.9999
0.9999
0.9997
0.9994
0.9988
0.9975
0.9962
0.9947
0.9939
0.9934
0.9928
0.992
0.9913
0.9905
0.9898
0.9889
0.988
0.9868
0.9854
0.9838
0.9818
0.9796
0.9773
0.9751
0.9732
0.9721
0.9719
0.9722
0.9732
0.9745
0.9765
0.9794
0.9824
0.9851
0.9876
0.9894
0.991
0.9924
0.9936
0.9945
0.9953
0.9959
0.9964
0.9969
0.9972
0.9975
0.9978
0.9979
0.9981
0.9983
0.9984
0.9985
0.9986
0.9987
0.9987
0.9988
0.9988
0.9989
0.9989
0.999
0.9989
0.9989
0.9988
0.9988
0.9989
0.9992
0.9994
0.9995
0.9995
0.9992
0.9985
0.9978
0.02227
0.02725
0.03133
0.01169
0.004351
0.002047
0.002434
0.005581
0.01398
0.01035
0.008156
0.003511
0.002062
0.001697
0.001402
0.0004957
0.0001925
3.14e-05
7.888e-06
4.11e-06
1.139e-05
9.379e-05
0.0008814
0.003143
0.0079
0.009086
0.0142
0.02075
0.02784
0.02893
0.02778
0.02639
0.02709
0.02857
0.02583
0.02403
0.02599
0.0275
0.02999
0.03488
0.02577
0.01871
0.01435
0.01518
0.01213
0.01352
0.01341
0.01401
0.01361
0.0159
0.01732
0.0225
0.03906
0.07413
0.1306
0.2185
0.3214
0.4077
0.4502
0.5004
0.5601
0.6338
0.7031
0.7581
0.7993
0.8325
0.8593
0.8807
0.8921
0.8967
0.896
0.8992
0.9037
0.9114
0.9221
0.9394
0.9568
0.9747
0.9838
0.9879
0.9914
0.9954
0.9975
0.9986
0.9993
0.9996
0.9997
0.9997
0.9997
0.9994
0.9988
0.9978
0.9964
0.9945
0.9934
0.9923
0.9918
0.9911
0.9903
0.9896
0.9889
0.9883
0.9877
0.9871
0.9864
0.9855
0.9844
0.9828
0.981
0.9791
0.9773
0.9762
0.9759
0.9764
0.9774
0.9785
0.9796
0.9812
0.9836
0.9866
0.9893
0.9914
0.9929
0.9939
0.9948
0.9956
0.9963
0.9968
0.9972
0.9975
0.9978
0.998
0.9982
0.9983
0.9984
0.9985
0.9986
0.9987
0.9987
0.9988
0.9988
0.9988
0.9989
0.9989
0.999
0.999
0.999
0.999
0.9989
0.9988
0.9989
0.9991
0.9992
0.9995
0.9995
0.9996
0.9996
0.9995
0.9992
0.9987
0.0177
0.02346
0.03178
0.01347
0.004985
0.002946
0.005076
0.01218
0.0229
0.01497
0.008287
0.003952
0.002373
0.00189
0.000763
0.0001686
4.547e-05
8.301e-06
3.055e-06
2.301e-06
1.008e-05
9.053e-05
0.0007998
0.003182
0.009373
0.009908
0.014
0.0198
0.02491
0.02425
0.024
0.02285
0.02708
0.03212
0.03583
0.03745
0.04271
0.04301
0.04563
0.04965
0.04003
0.03393
0.03043
0.03207
0.02636
0.02722
0.02563
0.03012
0.04104
0.06004
0.07291
0.08341
0.1128
0.1672
0.2659
0.3745
0.4543
0.5058
0.5459
0.5995
0.6574
0.713
0.7623
0.8017
0.8331
0.8596
0.8808
0.8957
0.9012
0.8992
0.8913
0.8879
0.89
0.8966
0.9049
0.9179
0.9337
0.9505
0.9618
0.9691
0.979
0.99
0.9949
0.9971
0.998
0.9985
0.9986
0.9986
0.998
0.996
0.9927
0.9898
0.9871
0.9851
0.9847
0.984
0.983
0.982
0.9811
0.9805
0.9802
0.9801
0.9801
0.98
0.9798
0.9792
0.9782
0.9767
0.9747
0.9727
0.9709
0.9706
0.9721
0.9748
0.9778
0.9804
0.9828
0.9852
0.988
0.9907
0.9929
0.9942
0.9951
0.9958
0.9964
0.997
0.9975
0.9978
0.998
0.9982
0.9983
0.9984
0.9985
0.9986
0.9987
0.9987
0.9988
0.9988
0.9989
0.9989
0.9989
0.999
0.999
0.999
0.999
0.999
0.999
0.9989
0.9989
0.999
0.9991
0.9994
0.9995
0.9997
0.9997
0.9998
0.9998
0.9997
0.9996
0.9992
0.01218
0.01827
0.028
0.01315
0.004928
0.004007
0.008171
0.02526
0.0358
0.02116
0.008695
0.003877
0.002163
0.001739
0.0003604
6.99e-05
2.298e-05
7.823e-06
4.421e-06
4.863e-06
2.617e-05
0.0002171
0.002031
0.007647
0.01864
0.01561
0.01822
0.0205
0.02314
0.02324
0.02422
0.02529
0.03384
0.0403
0.04177
0.04257
0.04511
0.03952
0.03545
0.03672
0.03674
0.04087
0.05178
0.06069
0.05274
0.04475
0.03549
0.03792
0.053
0.08495
0.1165
0.1477
0.1993
0.2742
0.3704
0.4559
0.5163
0.5675
0.6127
0.6622
0.7117
0.7585
0.7967
0.8264
0.8468
0.8652
0.8807
0.8912
0.89
0.8829
0.8702
0.8614
0.8615
0.8679
0.8728
0.8815
0.8957
0.9059
0.9164
0.93
0.948
0.9698
0.9823
0.9877
0.9906
0.992
0.9904
0.9881
0.9823
0.9708
0.9589
0.9562
0.9553
0.9552
0.9549
0.954
0.953
0.9524
0.9523
0.9538
0.9562
0.9588
0.961
0.9628
0.9638
0.965
0.9654
0.9643
0.9615
0.9582
0.9549
0.9547
0.9588
0.9649
0.9708
0.9759
0.9813
0.9862
0.9904
0.9933
0.9949
0.9957
0.9962
0.9967
0.9972
0.9976
0.9979
0.9982
0.9983
0.9985
0.9986
0.9986
0.9987
0.9987
0.9988
0.9988
0.9989
0.9989
0.999
0.999
0.999
0.999
0.9991
0.9991
0.999
0.999
0.9989
0.999
0.9991
0.9992
0.9994
0.9996
0.9997
0.9998
0.9998
0.9998
0.9998
0.9998
0.9996
0.9992
0.01126
0.01745
0.0258
0.0134
0.004382
0.004114
0.009648
0.02874
0.03334
0.01736
0.007233
0.003401
0.001555
0.001163
0.0002493
5.93e-05
3.658e-05
2.92e-05
2.542e-05
3.856e-05
0.0001851
0.001085
0.006866
0.0213
0.04207
0.03201
0.03203
0.02832
0.02568
0.0236
0.02441
0.0286
0.04262
0.05363
0.05289
0.05141
0.05107
0.04335
0.0366
0.03508
0.03378
0.03786
0.04796
0.06156
0.06322
0.06264
0.05817
0.0646
0.08304
0.1312
0.1903
0.251
0.316
0.3931
0.459
0.5155
0.5591
0.6053
0.6557
0.7048
0.751
0.7945
0.8239
0.8434
0.8531
0.8614
0.8678
0.8705
0.8639
0.8505
0.8327
0.818
0.8174
0.8231
0.8305
0.8389
0.8495
0.8531
0.8579
0.8681
0.8926
0.9224
0.9442
0.953
0.9578
0.9583
0.9512
0.9398
0.9176
0.8849
0.8567
0.8526
0.8526
0.8558
0.8601
0.864
0.8671
0.87
0.8737
0.8823
0.8932
0.9051
0.9149
0.9227
0.9286
0.9351
0.9394
0.9397
0.936
0.9303
0.9244
0.9243
0.9323
0.9433
0.9546
0.9647
0.9756
0.984
0.99
0.9935
0.9953
0.9962
0.9968
0.9973
0.9977
0.998
0.9982
0.9984
0.9985
0.9986
0.9987
0.9987
0.9988
0.9988
0.9989
0.9989
0.999
0.999
0.999
0.999
0.999
0.9991
0.9991
0.999
0.9989
0.9989
0.9989
0.9991
0.9993
0.9995
0.9996
0.9997
0.9997
0.9998
0.9997
0.9997
0.9997
0.9996
0.9995
0.9989
0.01293
0.02003
0.029
0.01686
0.005561
0.005383
0.009735
0.02348
0.02505
0.01384
0.005539
0.003212
0.001881
0.001352
0.0003917
0.0001547
0.0001677
0.0002519
0.0003098
0.0004832
0.001613
0.005408
0.01766
0.03806
0.05792
0.04439
0.0416
0.03388
0.02792
0.02404
0.02721
0.03641
0.05757
0.07823
0.07415
0.06693
0.05675
0.04525
0.03555
0.03182
0.02903
0.03335
0.04386
0.06312
0.08383
0.1006
0.1054
0.1226
0.1466
0.2007
0.2634
0.3468
0.4186
0.4883
0.5425
0.5976
0.6476
0.6975
0.7339
0.7619
0.7879
0.8121
0.8272
0.838
0.8391
0.838
0.8371
0.8334
0.8223
0.8067
0.7864
0.7689
0.7623
0.7593
0.7696
0.7852
0.7969
0.799
0.7955
0.7868
0.7972
0.8018
0.8064
0.8092
0.7863
0.7494
0.7125
0.6589
0.6102
0.5982
0.581
0.5832
0.5853
0.5942
0.6074
0.6258
0.6388
0.6615
0.6844
0.7186
0.7553
0.7916
0.8148
0.8346
0.8519
0.8721
0.887
0.8932
0.8894
0.8792
0.87
0.8717
0.8873
0.9068
0.9256
0.9438
0.9637
0.9781
0.987
0.9918
0.9943
0.9958
0.9969
0.9977
0.998
0.9983
0.9984
0.9985
0.9986
0.9987
0.9987
0.9988
0.9988
0.9989
0.9989
0.9989
0.999
0.999
0.999
0.999
0.999
0.999
0.9989
0.9988
0.9987
0.9988
0.999
0.9993
0.9995
0.9997
0.9997
0.9998
0.9997
0.9997
0.9996
0.9995
0.9993
0.9991
0.9986
0.9973
0.01679
0.02521
0.03546
0.01929
0.006973
0.005975
0.007444
0.01618
0.02
0.01362
0.007123
0.006179
0.004513
0.003503
0.001401
0.0006908
0.0008039
0.001422
0.002175
0.004248
0.009472
0.01692
0.02651
0.03278
0.03424
0.03088
0.03752
0.03098
0.02576
0.02082
0.02078
0.02531
0.04246
0.06552
0.07244
0.07208
0.06369
0.05359
0.04596
0.04237
0.03935
0.04435
0.05672
0.08069
0.118
0.1583
0.1778
0.2091
0.2365
0.2912
0.3622
0.4445
0.4984
0.5563
0.6049
0.6576
0.7048
0.7493
0.7777
0.7951
0.8068
0.8149
0.8152
0.8139
0.8039
0.7917
0.7867
0.7837
0.7758
0.7656
0.7475
0.7239
0.7033
0.6882
0.7015
0.722
0.735
0.7278
0.706
0.6656
0.6403
0.6021
0.564
0.5229
0.4529
0.4017
0.3746
0.3496
0.3158
0.3203
0.3074
0.3115
0.3084
0.3182
0.3313
0.3536
0.3726
0.4145
0.4475
0.497
0.5474
0.5978
0.6265
0.66
0.6998
0.7484
0.7874
0.8065
0.8075
0.7988
0.7933
0.8036
0.8315
0.8618
0.8887
0.9152
0.9458
0.9676
0.9803
0.988
0.9919
0.9945
0.9965
0.9976
0.9981
0.9984
0.9985
0.9985
0.9986
0.9987
0.9987
0.9988
0.9988
0.9988
0.9988
0.9988
0.9988
0.9988
0.9988
0.9988
0.9987
0.9987
0.9987
0.9987
0.9988
0.9991
0.9993
0.9995
0.9997
0.9998
0.9998
0.9997
0.9996
0.9995
0.9992
0.9988
0.9982
0.9976
0.9962
0.9933
0.02095
0.03046
0.04151
0.02179
0.008412
0.004936
0.004237
0.009442
0.0165
0.01699
0.0115
0.01383
0.01083
0.00875
0.004859
0.003067
0.00357
0.006573
0.009168
0.01541
0.02455
0.02889
0.02886
0.02571
0.0239
0.02436
0.03709
0.03222
0.02814
0.02287
0.02086
0.02205
0.03411
0.05653
0.07637
0.08992
0.08618
0.07733
0.0699
0.06559
0.06288
0.07123
0.08796
0.1153
0.156
0.2004
0.227
0.2688
0.3176
0.3784
0.4385
0.4997
0.5495
0.6044
0.6542
0.7047
0.7477
0.7856
0.8065
0.8161
0.8114
0.8018
0.7823
0.7611
0.7392
0.7179
0.7092
0.7102
0.7153
0.7176
0.7076
0.6813
0.646
0.6137
0.6178
0.6342
0.6383
0.612
0.5589
0.4759
0.4078
0.3386
0.2903
0.265
0.2206
0.2028
0.1857
0.1842
0.167
0.1636
0.1533
0.1546
0.1592
0.1735
0.1778
0.1785
0.1781
0.1904
0.204
0.229
0.2585
0.3005
0.3305
0.3792
0.4554
0.5222
0.5778
0.6137
0.6292
0.6423
0.6746
0.7198
0.7716
0.8177
0.8547
0.8872
0.9232
0.9522
0.9712
0.9828
0.9887
0.9924
0.9954
0.9973
0.998
0.9984
0.9985
0.9984
0.9984
0.9985
0.9986
0.9986
0.9986
0.9986
0.9986
0.9985
0.9985
0.9985
0.9986
0.9988
0.9989
0.999
0.9992
0.9992
0.9993
0.9995
0.9996
0.9997
0.9998
0.9997
0.9996
0.9994
0.999
0.9985
0.9977
0.9966
0.9943
0.9921
0.9889
0.9829
0.02115
0.02988
0.04259
0.01997
0.008379
0.003211
0.002241
0.005411
0.01622
0.02667
0.02582
0.0318
0.02485
0.02042
0.01346
0.01061
0.009481
0.01512
0.01846
0.02738
0.03396
0.0322
0.02736
0.02161
0.02356
0.02807
0.04457
0.04196
0.03699
0.02813
0.02356
0.022
0.0291
0.04729
0.0734
0.1026
0.1143
0.1086
0.1039
0.1019
0.1053
0.1236
0.1485
0.1775
0.2116
0.2477
0.2758
0.3125
0.3593
0.4123
0.4664
0.5237
0.5792
0.6326
0.6817
0.7273
0.7656
0.7985
0.8167
0.8252
0.8182
0.7984
0.7639
0.7321
0.702
0.6822
0.6736
0.6735
0.6782
0.6806
0.668
0.6316
0.5779
0.5282
0.5172
0.5149
0.4923
0.4318
0.3422
0.2525
0.2125
0.1858
0.1716
0.1625
0.129
0.1043
0.08997
0.08658
0.08515
0.09101
0.08803
0.0868
0.09294
0.1034
0.1122
0.1145
0.1163
0.1226
0.1328
0.1376
0.1427
0.1515
0.1592
0.1786
0.2225
0.2552
0.2937
0.3445
0.3915
0.4497
0.5425
0.636
0.7169
0.7877
0.8396
0.8762
0.9089
0.9401
0.9633
0.9778
0.9857
0.99
0.9935
0.996
0.9974
0.9981
0.9982
0.9981
0.998
0.9981
0.9982
0.9982
0.9983
0.9985
0.9988
0.9989
0.999
0.999
0.9992
0.9993
0.9993
0.9993
0.9994
0.9993
0.9995
0.9995
0.9996
0.9996
0.9996
0.9994
0.999
0.998
0.9967
0.9948
0.9923
0.9891
0.9838
0.9777
0.9708
0.9554
0.01636
0.02352
0.03753
0.02169
0.01372
0.004398
0.002586
0.004156
0.01294
0.01955
0.02497
0.03179
0.03054
0.02594
0.01952
0.01862
0.0164
0.02291
0.03057
0.03731
0.03665
0.03259
0.0274
0.02197
0.02227
0.02487
0.03748
0.03956
0.04201
0.03718
0.03103
0.02611
0.0297
0.04138
0.06384
0.09481
0.1143
0.1111
0.1158
0.1254
0.1438
0.1779
0.2119
0.2399
0.2646
0.2933
0.3262
0.3636
0.4022
0.4439
0.4868
0.5345
0.5864
0.6343
0.6814
0.7247
0.7606
0.7918
0.8121
0.8229
0.8141
0.7888
0.7451
0.7038
0.6703
0.6538
0.6426
0.6339
0.6312
0.623
0.6059
0.5609
0.4982
0.4434
0.4203
0.3953
0.3446
0.2749
0.2152
0.1697
0.1423
0.125
0.1076
0.0939
0.07006
0.05219
0.04228
0.04154
0.04278
0.04853
0.0463
0.04421
0.05041
0.06149
0.07304
0.08026
0.08459
0.08936
0.1018
0.1096
0.1149
0.1181
0.1245
0.1358
0.1596
0.1685
0.1872
0.2149
0.2609
0.3483
0.4787
0.5886
0.6832
0.7682
0.8311
0.8728
0.9043
0.9351
0.9599
0.9759
0.9839
0.9876
0.9907
0.9939
0.9967
0.9981
0.9986
0.9987
0.9987
0.9987
0.9987
0.9988
0.999
0.9992
0.9993
0.9994
0.9993
0.9992
0.9993
0.9993
0.9994
0.9993
0.9993
0.9991
0.9991
0.9991
0.9991
0.9989
0.9986
0.9976