/*--------------------------------*- C++ -*----------------------------------*\
| =========                 |                                                 |
| \\      /  F ield         | OpenFOAM: The Open Source CFD Toolbox           |
|  \\    /   O peration     | Version:  5.x                                   |
|   \\  /    A nd           | Web:      www.OpenFOAM.org                      |
|    \\/     M anipulation  |                                                 |
\*---------------------------------------------------------------------------*/
FoamFile
{
    version     2.0;
    format      ascii;
    class       volScalarField;
    location    "80";
    object      gamma;
}
// * * * * * * * * * * * * * * * * * * * * * * * * * * * * * * * * * * * * * //

dimensions      [0 0 0 0 0 0 0];

internalField   nonuniform List<scalar> 
80000
(
1
1
1
1
1
1
1
1
1
1
1
1
1
1
1
1
1
1
1
1
1
1
1
1
1
1
1
1
1
1
1
1
1
1
1
1
1
1
1
1
1
1
1
1
1
1
1
1
1
1
1
1
1
1
1
1
1
1
1
1
1
1
1
1
1
1
1
1
1
1
1
1
1
1
1
1
1
1
1
1
1
1
1
1
1
1
1
1
1
1
1
1
1
1
1
1
1
1
1
1
1
1
1
1
1
1
1
1
1
1
1
1
1
1
1
1
1
1
1
1
1
1
1
1
1
1
1
1
1
1
1
1
1
1
1
1
1
1
1
1
1
1
1
1
1
1
1
1
1
1
1
1
1
1
1
1
1
1
1
1
1
1
1
1
1
1
1
1
1
1
1
1
1
1
1
1
1
1
1
1
1
1
1
1
1
1
1
1
1
1
1
1
1
1
1
1
1
1
1
1
1
1
1
1
1
1
1
1
1
1
1
1
1
1
1
1
1
1
1
1
1
1
1
1
1
1
1
1
1
1
1
1
1
1
1
1
1
1
1
1
1
1
1
1
1
1
1
1
1
1
1
1
1
1
1
1
1
0.99999
0.99999
0.99994
0.99897
0.9622
0.077546
0.00049683
1.4365e-05
1.4057e-06
1.3974e-07
1.2926e-08
2.0084e-09
7.7482e-10
1.1751e-09
5.4932e-09
3.7775e-08
2.0108e-07
6.8862e-07
1.0627e-06
1.0616e-06
1.0893e-06
1.8816e-06
4.2254e-06
1.2063e-05
2.2451e-05
3.4792e-05
4.0704e-05
2.5183e-05
1.2112e-05
4.364e-06
2.336e-06
2.0287e-06
3.097e-06
3.4173e-06
3.3477e-06
3.2061e-06
3.0793e-06
2.9636e-06
2.8889e-06
2.8541e-06
2.834e-06
2.8298e-06
2.7994e-06
2.7515e-06
2.6884e-06
2.6211e-06
2.5681e-06
2.5304e-06
2.5033e-06
2.4925e-06
2.4749e-06
2.4153e-06
2.3078e-06
2.174e-06
2.1333e-06
2.4459e-06
3.7926e-06
5.5955e-06
2.8356e-06
9.3329e-07
2.1927e-07
8.7807e-08
6.7435e-08
1.0729e-07
1.1833e-07
1.1362e-07
1.0756e-07
1.0382e-07
1.0166e-07
9.976e-08
9.7789e-08
9.5799e-08
9.3854e-08
9.1974e-08
9.0155e-08
8.839e-08
8.6675e-08
8.5007e-08
8.3384e-08
8.1805e-08
8.0269e-08
7.8774e-08
7.7319e-08
7.5905e-08
7.4529e-08
7.3193e-08
7.1897e-08
7.0639e-08
6.9421e-08
6.8242e-08
6.7104e-08
6.6006e-08
6.4949e-08
6.3934e-08
6.296e-08
6.2028e-08
6.1139e-08
6.0293e-08
5.949e-08
5.8731e-08
5.8015e-08
5.7342e-08
5.6713e-08
5.6126e-08
5.5582e-08
5.508e-08
5.462e-08
5.4199e-08
5.3818e-08
5.3474e-08
5.3167e-08
5.2895e-08
5.2657e-08
5.245e-08
5.2272e-08
5.2122e-08
5.1998e-08
5.1896e-08
5.1816e-08
5.1754e-08
5.1708e-08
5.1676e-08
5.1656e-08
5.1645e-08
5.1641e-08
5.1643e-08
5.1649e-08
5.1656e-08
5.1664e-08
5.1679e-08
5.1702e-08
5.1712e-08
5.1626e-08
5.1367e-08
5.1299e-08
5.2298e-08
5.5107e-08
5.6387e-08
4.3619e-08
3.3642e-08
4.0377e-08
5.112e-08
8.4915e-08
1
1
1
1
1
1
1
1
1
1
1
1
1
1
1
1
1
1
1
1
1
1
1
1
1
1
1
1
1
1
1
1
1
1
1
1
1
1
1
1
1
1
1
1
1
1
1
1
1
1
1
1
1
1
1
1
1
1
1
1
1
1
1
1
1
1
1
1
1
1
1
1
1
1
1
1
1
1
1
1
1
1
1
1
1
1
1
1
1
1
1
1
1
1
1
1
1
1
1
1
1
1
1
1
1
1
1
1
1
1
1
1
1
1
1
1
1
1
1
1
1
1
1
1
1
1
1
1
1
1
1
1
1
1
1
1
1
1
1
1
1
1
1
1
1
1
1
1
1
1
1
1
1
1
1
1
1
1
1
1
1
1
1
1
1
1
1
1
1
1
1
1
1
1
1
1
1
1
1
1
1
1
1
1
1
1
1
1
1
1
1
1
1
1
1
1
1
1
1
1
1
1
1
1
1
1
1
1
1
1
1
1
1
1
1
1
1
1
1
1
1
1
1
1
1
1
1
1
1
1
1
1
1
1
1
1
1
1
1
1
1
1
1
1
1
1
1
1
1
1
1
1
1
1
1
1
1
1
0.99999
0.99997
0.99971
0.99624
0.95037
0.60123
0.047405
0.004781
0.00027883
8.875e-06
3.1675e-07
2.2009e-08
5.5548e-09
5.2164e-09
1.116e-08
2.7251e-08
6.5929e-08
1.3156e-07
2.8116e-07
6.8714e-07
2.1916e-06
7.2895e-06
1.5297e-05
2.3733e-05
2.7705e-05
2.3265e-05
1.1898e-05
5.2235e-06
2.1275e-06
1.4661e-06
1.5235e-06
2.1948e-06
2.3722e-06
2.3071e-06
2.1964e-06
2.1077e-06
2.0422e-06
2.0047e-06
1.987e-06
1.9779e-06
1.9542e-06
1.9204e-06
1.8804e-06
1.8352e-06
1.7909e-06
1.7595e-06
1.736e-06
1.7219e-06
1.7061e-06
1.6825e-06
1.6285e-06
1.5502e-06
1.477e-06
1.5192e-06
1.8999e-06
2.4077e-06
2.2611e-06
9.1735e-07
2.8282e-07
8.1179e-08
4.649e-08
4.5384e-08
6.7797e-08
7.2845e-08
6.956e-08
6.5914e-08
6.3689e-08
6.2366e-08
6.118e-08
5.9958e-08
5.8731e-08
5.7535e-08
5.6381e-08
5.5266e-08
5.4184e-08
5.3134e-08
5.2113e-08
5.112e-08
5.0154e-08
4.9214e-08
4.8299e-08
4.7409e-08
4.6542e-08
4.57e-08
4.4882e-08
4.4087e-08
4.3316e-08
4.2568e-08
4.1845e-08
4.1145e-08
4.047e-08
3.9819e-08
3.9194e-08
3.8593e-08
3.8018e-08
3.7469e-08
3.6946e-08
3.6448e-08
3.5977e-08
3.5532e-08
3.5113e-08
3.472e-08
3.4354e-08
3.4013e-08
3.3697e-08
3.3406e-08
3.3139e-08
3.2896e-08
3.2676e-08
3.2478e-08
3.2302e-08
3.2145e-08
3.2008e-08
3.1889e-08
3.1786e-08
3.17e-08
3.1627e-08
3.1568e-08
3.152e-08
3.1482e-08
3.1453e-08
3.1432e-08
3.1417e-08
3.1408e-08
3.1403e-08
3.14e-08
3.14e-08
3.1401e-08
3.1407e-08
3.1419e-08
3.1424e-08
3.1369e-08
3.1207e-08
3.1168e-08
3.1801e-08
3.3565e-08
3.4349e-08
2.6312e-08
2.0161e-08
2.4513e-08
3.0999e-08
5.112e-08
1
1
1
1
1
1
1
1
1
1
1
1
1
1
1
1
1
1
1
1
1
1
1
1
1
1
1
1
1
1
1
1
1
1
1
1
1
1
1
1
1
1
1
1
1
1
1
1
1
1
1
1
1
1
1
1
1
1
1
1
1
1
1
1
1
1
1
1
1
1
1
1
1
1
1
1
1
1
1
1
1
1
1
1
1
1
1
1
1
1
1
1
1
1
1
1
1
1
1
1
1
1
1
1
1
1
1
1
1
1
1
1
1
1
1
1
1
1
1
1
1
1
1
1
1
1
1
1
1
1
1
1
1
1
1
1
1
1
1
1
1
1
1
1
1
1
1
1
1
1
1
1
1
1
1
1
1
1
1
1
1
1
1
1
1
1
1
1
1
1
1
1
1
1
1
1
1
1
1
1
1
1
1
1
1
1
1
1
1
1
1
1
1
1
1
1
1
1
1
1
1
1
1
1
1
1
1
1
1
1
1
1
1
1
1
1
1
1
1
1
1
1
1
1
1
1
1
1
1
1
1
1
1
1
1
1
1
1
1
1
1
1
1
1
1
1
1
1
1
1
1
1
1
1
1
1
1
1
1
0.99999
0.99996
0.99982
0.9989
0.99458
0.97843
0.9257
0.62962
0.023761
0.00041883
7.0728e-06
3.4597e-07
5.1582e-08
1.8986e-08
1.0587e-08
1.1778e-08
2.1398e-08
7.2825e-08
3.6097e-07
2.1865e-06
8.2535e-06
1.8528e-05
2.4735e-05
2.1214e-05
1.2998e-05
5.6913e-06
2.2707e-06
1.3843e-06
1.2346e-06
1.4554e-06
1.9211e-06
2.0136e-06
1.9335e-06
1.8382e-06
1.77e-06
1.7269e-06
1.704e-06
1.6933e-06
1.672e-06
1.6423e-06
1.6071e-06
1.5692e-06
1.5333e-06
1.5004e-06
1.4776e-06
1.4589e-06
1.4454e-06
1.4264e-06
1.3969e-06
1.3408e-06
1.2745e-06
1.2461e-06
1.3769e-06
1.9351e-06
1.9561e-06
1.2415e-06
4.0545e-07
1.0366e-07
4.1122e-08
3.4588e-08
4.0739e-08
5.5408e-08
5.7457e-08
5.4593e-08
5.1905e-08
5.0277e-08
4.9252e-08
4.8309e-08
4.7343e-08
4.6379e-08
4.5443e-08
4.4542e-08
4.3671e-08
4.2828e-08
4.2009e-08
4.1214e-08
4.0441e-08
3.9688e-08
3.8956e-08
3.8243e-08
3.7549e-08
3.6873e-08
3.6216e-08
3.5577e-08
3.4956e-08
3.4353e-08
3.3768e-08
3.3202e-08
3.2653e-08
3.2123e-08
3.1612e-08
3.112e-08
3.0647e-08
3.0194e-08
2.976e-08
2.9345e-08
2.8951e-08
2.8577e-08
2.8222e-08
2.7888e-08
2.7574e-08
2.7279e-08
2.7005e-08
2.6749e-08
2.6513e-08
2.6296e-08
2.6096e-08
2.5915e-08
2.575e-08
2.5602e-08
2.547e-08
2.5352e-08
2.5249e-08
2.5158e-08
2.508e-08
2.5013e-08
2.4957e-08
2.4909e-08
2.487e-08
2.4839e-08
2.4814e-08
2.4795e-08
2.478e-08
2.4769e-08
2.4761e-08
2.4756e-08
2.4753e-08
2.4755e-08
2.4762e-08
2.4764e-08
2.4719e-08
2.4589e-08
2.4559e-08
2.5067e-08
2.6481e-08
2.7108e-08
2.068e-08
1.5762e-08
1.9283e-08
2.4513e-08
4.0377e-08
1
1
1
1
1
1
1
1
1
1
1
1
1
1
1
1
1
1
1
1
1
1
1
1
1
1
1
1
1
1
1
1
1
1
1
1
1
1
1
1
1
1
1
1
1
1
1
1
1
1
1
1
1
1
1
1
1
1
1
1
1
1
1
1
1
1
1
1
1
1
1
1
1
1
1
1
1
1
1
1
1
1
1
1
1
1
1
1
1
1
1
1
1
1
1
1
1
1
1
1
1
1
1
1
1
1
1
1
1
1
1
1
1
1
1
1
1
1
1
1
1
1
1
1
1
1
1
1
1
1
1
1
1
1
1
1
1
1
1
1
1
1
1
1
1
1
1
1
1
1
1
1
1
1
1
1
1
1
1
1
1
1
1
1
1
1
1
1
1
1
1
1
1
1
1
1
1
1
1
1
1
1
1
1
1
1
1
1
1
1
1
1
1
1
1
1
1
1
1
1
1
1
1
1
1
1
1
1
1
1
1
1
1
1
1
1
1
1
1
1
1
1
1
1
1
1
1
1
1
1
1
1
1
1
1
1
1
1
1
1
1
1
1
1
1
1
1
1
1
1
1
1
1
1
1
1
1
1
1
1
1
1
0.99999
0.99998
0.99996
0.99989
0.99947
0.99434
0.89545
0.032096
0.00024278
4.0642e-06
1.8529e-07
1.9313e-08
6.4864e-09
6.0425e-09
1.9054e-08
1.3949e-07
1.0508e-06
5.5747e-06
1.4396e-05
1.6934e-05
1.1429e-05
5.3915e-06
2.0969e-06
1.2261e-06
1.0509e-06
1.1936e-06
1.5235e-06
1.7717e-06
1.7655e-06
1.6706e-06
1.5886e-06
1.5366e-06
1.5109e-06
1.5017e-06
1.4874e-06
1.4592e-06
1.4251e-06
1.3876e-06
1.3536e-06
1.3265e-06
1.3026e-06
1.2863e-06
1.2724e-06
1.2544e-06
1.2322e-06
1.1954e-06
1.1354e-06
1.0803e-06
1.1051e-06
1.3659e-06
1.7574e-06
1.1837e-06
4.5723e-07
1.101e-07
3.7995e-08
2.3228e-08
2.928e-08
3.9991e-08
4.7515e-08
4.6961e-08
4.441e-08
4.2473e-08
4.1296e-08
4.0475e-08
3.9691e-08
3.8895e-08
3.8107e-08
3.7346e-08
3.6614e-08
3.5908e-08
3.5224e-08
3.4561e-08
3.3918e-08
3.3292e-08
3.2684e-08
3.2092e-08
3.1515e-08
3.0954e-08
3.0407e-08
2.9875e-08
2.9358e-08
2.8854e-08
2.8365e-08
2.789e-08
2.7429e-08
2.6982e-08
2.655e-08
2.6133e-08
2.573e-08
2.5343e-08
2.4971e-08
2.4613e-08
2.4272e-08
2.3946e-08
2.3636e-08
2.3341e-08
2.3062e-08
2.2799e-08
2.2552e-08
2.232e-08
2.2104e-08
2.1902e-08
2.1715e-08
2.1543e-08
2.1385e-08
2.124e-08
2.1108e-08
2.0989e-08
2.0882e-08
2.0786e-08
2.0701e-08
2.0625e-08
2.0559e-08
2.0501e-08
2.0452e-08
2.0409e-08
2.0373e-08
2.0343e-08
2.0317e-08
2.0297e-08
2.028e-08
2.0267e-08
2.0257e-08
2.025e-08
2.0247e-08
2.025e-08
2.0249e-08
2.0211e-08
2.0102e-08
2.0077e-08
2.0502e-08
2.1674e-08
2.2189e-08
1.6857e-08
1.2799e-08
1.5762e-08
2.0161e-08
3.3642e-08
1
1
1
1
1
1
1
1
1
1
1
1
1
1
1
1
1
1
1
1
1
1
1
1
1
1
1
1
1
1
1
1
1
1
1
1
1
1
1
1
1
1
1
1
1
1
1
1
1
1
1
1
1
1
1
1
1
1
1
1
1
1
1
1
1
1
1
1
1
1
1
1
1
1
1
1
1
1
1
1
1
1
1
1
1
1
1
1
1
1
1
1
1
1
1
1
1
1
1
1
1
1
1
1
1
1
1
1
1
1
1
1
1
1
1
1
1
1
1
1
1
1
1
1
1
1
1
1
1
1
1
1
1
1
1
1
1
1
1
1
1
1
1
1
1
1
1
1
1
1
1
1
1
1
1
1
1
1
1
1
1
1
1
1
1
1
1
1
1
1
1
1
1
1
1
1
1
1
1
1
1
1
1
1
1
1
1
1
1
1
1
1
1
1
1
1
1
1
1
1
1
1
1
1
1
1
1
1
1
1
1
1
1
1
1
1
1
1
1
1
1
1
1
1
1
1
1
1
1
1
1
1
1
1
1
1
1
1
1
1
1
1
1
1
1
1
1
1
1
1
1
1
1
1
1
1
1
1
1
1
1
1
1
1
1
1
1
0.99999
0.99982
0.99535
0.88366
0.030841
0.00024897
4.1258e-06
1.9315e-07
2.7886e-08
2.7697e-08
7.7107e-08
3.5228e-07
1.3581e-06
3.1876e-06
4.0566e-06
3.3906e-06
1.8072e-06
1.2389e-06
1.1566e-06
1.3777e-06
1.839e-06
2.2818e-06
2.3417e-06
2.2262e-06
2.0791e-06
1.9805e-06
1.9259e-06
1.9066e-06
1.8879e-06
1.8624e-06
1.8146e-06
1.7652e-06
1.7214e-06
1.6882e-06
1.6606e-06
1.6366e-06
1.6166e-06
1.5909e-06
1.5634e-06
1.5318e-06
1.4768e-06
1.3952e-06
1.337e-06
1.4467e-06
2.0162e-06
2.0382e-06
9.1755e-07
2.5058e-07
5.9442e-08
2.5807e-08
2.6313e-08
4.47e-08
6.1672e-08
6.4174e-08
6.0783e-08
5.7419e-08
5.5313e-08
5.3994e-08
5.2949e-08
5.1919e-08
5.0883e-08
4.9869e-08
4.8891e-08
4.795e-08
4.7042e-08
4.6163e-08
4.5311e-08
4.4485e-08
4.3682e-08
4.2902e-08
4.2143e-08
4.1404e-08
4.0685e-08
3.9985e-08
3.9302e-08
3.8638e-08
3.7992e-08
3.7363e-08
3.6752e-08
3.6159e-08
3.5584e-08
3.5026e-08
3.4487e-08
3.3966e-08
3.3464e-08
3.2981e-08
3.2516e-08
3.2071e-08
3.1645e-08
3.1239e-08
3.0852e-08
3.0484e-08
3.0137e-08
2.9808e-08
2.9499e-08
2.9209e-08
2.8938e-08
2.8685e-08
2.8451e-08
2.8234e-08
2.8033e-08
2.785e-08
2.7682e-08
2.7529e-08
2.739e-08
2.7265e-08
2.7153e-08
2.7052e-08
2.6963e-08
2.6885e-08
2.6816e-08
2.6756e-08
2.6704e-08
2.6659e-08
2.6622e-08
2.659e-08
2.6564e-08
2.6542e-08
2.6526e-08
2.6516e-08
2.6515e-08
2.651e-08
2.6458e-08
2.6316e-08
2.6283e-08
2.683e-08
2.8343e-08
2.901e-08
2.213e-08
1.6857e-08
2.068e-08
2.6312e-08
4.3619e-08
1
1
1
1
1
1
1
1
1
1
1
1
1
1
1
1
1
1
1
1
1
1
1
1
1
1
1
1
1
1
1
1
1
1
1
1
1
1
1
1
1
1
1
1
1
1
1
1
1
1
1
1
1
1
1
1
1
1
1
1
1
1
1
1
1
1
1
1
1
1
1
1
1
1
1
1
1
1
1
1
1
1
1
1
1
1
1
1
1
1
1
1
1
1
1
1
1
1
1
1
1
1
1
1
1
1
1
1
1
1
1
1
1
1
1
1
1
1
1
1
1
1
1
1
1
1
1
1
1
1
1
1
1
1
1
1
1
1
1
1
1
1
1
1
1
1
1
1
1
1
1
1
1
1
1
1
1
1
1
1
1
1
1
1
1
1
1
1
1
1
1
1
1
1
1
1
1
1
1
1
1
1
1
1
1
1
1
1
1
1
1
1
1
1
1
1
1
1
1
1
1
1
1
1
1
1
1
1
1
1
1
1
1
1
1
1
1
1
1
1
1
1
1
1
1
1
1
1
1
1
1
1
1
1
1
1
1
1
1
1
1
1
1
1
1
1
1
1
1
1
1
1
1
1
1
1
1
1
1
1
1
1
1
1
1
1
1
1
1
0.99999
0.9998
0.99571
0.88378
0.029479
0.00024681
4.5885e-06
4.9265e-07
1.7945e-07
1.7685e-07
2.0609e-07
2.6259e-07
3.0759e-07
3.5007e-07
4.4197e-07
7.3055e-07
1.3434e-06
2.2257e-06
3.0399e-06
3.2089e-06
3.0587e-06
2.8338e-06
2.6293e-06
2.5101e-06
2.4462e-06
2.4132e-06
2.3767e-06
2.3339e-06
2.2609e-06
2.1949e-06
2.1491e-06
2.1146e-06
2.087e-06
2.0647e-06
2.0355e-06
1.9966e-06
1.9595e-06
1.9184e-06
1.8427e-06
1.7357e-06
1.6802e-06
1.9098e-06
2.9382e-06
2.1212e-06
6.8815e-07
1.4981e-07
4.8781e-08
2.8269e-08
4.644e-08
8.0793e-08
9.1535e-08
8.6835e-08
8.0042e-08
7.5619e-08
7.3126e-08
7.1452e-08
7e-08
6.8583e-08
6.7196e-08
6.5857e-08
6.4569e-08
6.3328e-08
6.2128e-08
6.0966e-08
5.984e-08
5.8748e-08
5.7688e-08
5.6659e-08
5.5659e-08
5.4686e-08
5.3739e-08
5.2817e-08
5.192e-08
5.1046e-08
5.0197e-08
4.937e-08
4.8566e-08
4.7786e-08
4.7029e-08
4.6295e-08
4.5584e-08
4.4898e-08
4.4235e-08
4.3596e-08
4.2981e-08
4.2391e-08
4.1826e-08
4.1286e-08
4.077e-08
4.0279e-08
3.9814e-08
3.9373e-08
3.8956e-08
3.8564e-08
3.8196e-08
3.7852e-08
3.753e-08
3.7231e-08
3.6953e-08
3.6697e-08
3.646e-08
3.6244e-08
3.6045e-08
3.5864e-08
3.57e-08
3.5552e-08
3.5418e-08
3.5299e-08
3.5192e-08
3.5098e-08
3.5015e-08
3.4942e-08
3.4879e-08
3.4826e-08
3.478e-08
3.4741e-08
3.471e-08
3.469e-08
3.4681e-08
3.467e-08
3.4597e-08
3.4411e-08
3.4365e-08
3.5068e-08
3.7014e-08
3.7873e-08
2.901e-08
2.2189e-08
2.7108e-08
3.4349e-08
5.6387e-08
1
1
1
1
1
1
1
1
1
1
1
1
1
1
1
1
1
1
1
1
1
1
1
1
1
1
1
1
1
1
1
1
1
1
1
1
1
1
1
1
1
1
1
1
1
1
1
1
1
1
1
1
1
1
1
1
1
1
1
1
1
1
1
1
1
1
1
1
1
1
1
1
1
1
1
1
1
1
1
1
1
1
1
1
1
1
1
1
1
1
1
1
1
1
1
1
1
1
1
1
1
1
1
1
1
1
1
1
1
1
1
1
1
1
1
1
1
1
1
1
1
1
1
1
1
1
1
1
1
1
1
1
1
1
1
1
1
1
1
1
1
1
1
1
1
1
1
1
1
1
1
1
1
1
1
1
1
1
1
1
1
1
1
1
1
1
1
1
1
1
1
1
1
1
1
1
1
1
1
1
1
1
1
1
1
1
1
1
1
1
1
1
1
1
1
1
1
1
1
1
1
1
1
1
1
1
1
1
1
1
1
1
1
1
1
1
1
1
1
1
1
1
1
1
1
1
1
1
1
1
1
1
1
1
1
1
1
1
1
1
1
1
1
1
1
1
1
1
1
1
1
1
1
1
1
1
1
1
1
1
1
1
1
1
1
1
1
1
1
1
1
0.99998
0.99971
0.99305
0.83183
0.015193
0.00021047
5.8168e-06
4.848e-07
7.5123e-08
2.8096e-08
1.5517e-08
2.3081e-08
5.5659e-08
1.9731e-07
7.1605e-07
1.7084e-06
2.6381e-06
3.0281e-06
3.0455e-06
2.8994e-06
2.7264e-06
2.6111e-06
2.5243e-06
2.4658e-06
2.4113e-06
2.3583e-06
2.28e-06
2.2167e-06
2.172e-06
2.1394e-06
2.1169e-06
2.0879e-06
2.0522e-06
2.0091e-06
1.9732e-06
1.9359e-06
1.8601e-06
1.751e-06
1.7094e-06
1.9978e-06
3.2288e-06
1.643e-06
4.7901e-07
1.0265e-07
3.8403e-08
2.6469e-08
5.9668e-08
9.1306e-08
9.6277e-08
8.8993e-08
8.171e-08
7.726e-08
7.455e-08
7.2513e-08
7.072e-08
6.9078e-08
6.7565e-08
6.6157e-08
6.4825e-08
6.3546e-08
6.2309e-08
6.1109e-08
5.9946e-08
5.8817e-08
5.7722e-08
5.666e-08
5.5628e-08
5.4627e-08
5.3653e-08
5.2707e-08
5.1787e-08
5.0892e-08
5.0022e-08
4.9176e-08
4.8354e-08
4.7557e-08
4.6784e-08
4.6034e-08
4.5309e-08
4.4608e-08
4.3931e-08
4.3279e-08
4.2651e-08
4.2048e-08
4.147e-08
4.0917e-08
4.0388e-08
3.9885e-08
3.9406e-08
3.8952e-08
3.8523e-08
3.8118e-08
3.7736e-08
3.7378e-08
3.7042e-08
3.6729e-08
3.6437e-08
3.6166e-08
3.5915e-08
3.5683e-08
3.547e-08
3.5274e-08
3.5096e-08
3.4933e-08
3.4785e-08
3.4651e-08
3.4531e-08
3.4423e-08
3.4327e-08
3.4243e-08
3.4168e-08
3.4103e-08
3.4047e-08
3.3999e-08
3.396e-08
3.3931e-08
3.3916e-08
3.3899e-08
3.3822e-08
3.3635e-08
3.3586e-08
3.427e-08
3.6173e-08
3.7014e-08
2.8343e-08
2.1674e-08
2.6481e-08
3.3565e-08
5.5107e-08
1
1
1
1
1
1
1
1
1
1
1
1
1
1
1
1
1
1
1
1
1
1
1
1
1
1
1
1
1
1
1
1
1
1
1
1
1
1
1
1
1
1
1
1
1
1
1
1
1
1
1
1
1
1
1
1
1
1
1
1
1
1
1
1
1
1
1
1
1
1
1
1
1
1
1
1
1
1
1
1
1
1
1
1
1
1
1
1
1
1
1
1
1
1
1
1
1
1
1
1
1
1
1
1
1
1
1
1
1
1
1
1
1
1
1
1
1
1
1
1
1
1
1
1
1
1
1
1
1
1
1
1
1
1
1
1
1
1
1
1
1
1
1
1
1
1
1
1
1
1
1
1
1
1
1
1
1
1
1
1
1
1
1
1
1
1
1
1
1
1
1
1
1
1
1
1
1
1
1
1
1
1
1
1
1
1
1
1
1
1
1
1
1
1
1
1
1
1
1
1
1
1
1
1
1
1
1
1
1
1
1
1
1
1
1
1
1
1
1
1
1
1
1
1
1
1
1
1
1
1
1
1
1
1
1
1
1
1
1
1
1
1
1
1
1
1
1
1
1
1
1
1
1
1
1
1
1
1
1
1
1
1
1
1
1
1
1
1
1
1
1
1
0.99999
0.99994
0.99932
0.98259
0.59076
0.0041447
4.249e-05
6.9148e-07
3.5291e-08
5.8166e-09
4.1926e-09
8.796e-09
3.2722e-08
1.4544e-07
4.3395e-07
1.0293e-06
1.7398e-06
2.3377e-06
2.6298e-06
2.69e-06
2.6482e-06
2.5664e-06
2.4889e-06
2.4129e-06
2.3437e-06
2.2654e-06
2.2039e-06
2.1594e-06
2.1266e-06
2.0979e-06
2.0615e-06
2.0221e-06
1.9806e-06
1.9508e-06
1.9204e-06
1.8478e-06
1.7428e-06
1.7072e-06
1.9893e-06
3.1821e-06
1.5887e-06
4.487e-07
9.1987e-08
3.2963e-08
2.2123e-08
4.9935e-08
7.9206e-08
8.7987e-08
8.5341e-08
8.0833e-08
7.7417e-08
7.4663e-08
7.2147e-08
6.9823e-08
6.7779e-08
6.6013e-08
6.4471e-08
6.3079e-08
6.1782e-08
6.0544e-08
5.935e-08
5.8192e-08
5.7067e-08
5.5975e-08
5.4916e-08
5.3888e-08
5.289e-08
5.1922e-08
5.0982e-08
5.0069e-08
4.9181e-08
4.832e-08
4.7483e-08
4.6671e-08
4.5883e-08
4.5119e-08
4.4379e-08
4.3663e-08
4.2971e-08
4.2303e-08
4.1658e-08
4.1038e-08
4.0442e-08
3.9871e-08
3.9323e-08
3.8799e-08
3.83e-08
3.7824e-08
3.7373e-08
3.6944e-08
3.6539e-08
3.6156e-08
3.5796e-08
3.5458e-08
3.514e-08
3.4844e-08
3.4567e-08
3.431e-08
3.4071e-08
3.385e-08
3.3646e-08
3.3458e-08
3.3286e-08
3.3129e-08
3.2985e-08
3.2855e-08
3.2738e-08
3.2632e-08
3.2537e-08
3.2454e-08
3.238e-08
3.2315e-08
3.2259e-08
3.2212e-08
3.2176e-08
3.2154e-08
3.2131e-08
3.2052e-08
3.1869e-08
3.1818e-08
3.2465e-08
3.427e-08
3.5068e-08
2.683e-08
2.0502e-08
2.5067e-08
3.1801e-08
5.2299e-08
1
1
1
1
1
1
1
1
1
1
1
1
1
1
1
1
1
1
1
1
1
1
1
1
1
1
1
1
1
1
1
1
1
1
1
1
1
1
1
1
1
1
1
1
1
1
1
1
1
1
1
1
1
1
1
1
1
1
1
1
1
1
1
1
1
1
1
1
1
1
1
1
1
1
1
1
1
1
1
1
1
1
1
1
1
1
1
1
1
1
1
1
1
1
1
1
1
1
1
1
1
1
1
1
1
1
1
1
1
1
1
1
1
1
1
1
1
1
1
1
1
1
1
1
1
1
1
1
1
1
1
1
1
1
1
1
1
1
1
1
1
1
1
1
1
1
1
1
1
1
1
1
1
1
1
1
1
1
1
1
1
1
1
1
1
1
1
1
1
1
1
1
1
1
1
1
1
1
1
1
1
1
1
1
1
1
1
1
1
1
1
1
1
1
1
1
1
1
1
1
1
1
1
1
1
1
1
1
1
1
1
1
1
1
1
1
1
1
1
1
1
1
1
1
1
1
1
1
1
1
1
1
1
1
1
1
1
1
1
1
1
1
1
1
1
1
1
1
1
1
1
1
1
1
1
1
1
1
1
1
1
1
1
1
1
1
1
1
1
1
1
1
1
1
0.99998
0.99985
0.99819
0.9623
0.15593
0.00056572
3.1598e-06
7.4673e-08
9.8512e-09
6.4304e-09
8.3751e-09
1.9681e-08
5.0214e-08
1.5884e-07
4.3573e-07
9.7902e-07
1.6481e-06
2.2006e-06
2.5026e-06
2.5849e-06
2.5608e-06
2.4902e-06
2.4159e-06
2.3348e-06
2.2692e-06
2.2173e-06
2.1784e-06
2.1348e-06
2.092e-06
2.0512e-06
2.015e-06
1.9915e-06
1.9635e-06
1.8949e-06
1.7946e-06
1.7534e-06
1.9836e-06
2.9664e-06
2.027e-06
7.7945e-07
1.7285e-07
5.1404e-08
2.4961e-08
3.392e-08
4.9311e-08
6.5834e-08
7.3868e-08
7.7032e-08
7.783e-08
7.6828e-08
7.4659e-08
7.1998e-08
6.9414e-08
6.7125e-08
6.5181e-08
6.3519e-08
6.2062e-08
6.0738e-08
5.9498e-08
5.8313e-08
5.7167e-08
5.6056e-08
5.4975e-08
5.3926e-08
5.2907e-08
5.1918e-08
5.0958e-08
5.0027e-08
4.9123e-08
4.8246e-08
4.7395e-08
4.657e-08
4.577e-08
4.4994e-08
4.4243e-08
4.3516e-08
4.2814e-08
4.2136e-08
4.1481e-08
4.0851e-08
4.0245e-08
3.9664e-08
3.9106e-08
3.8572e-08
3.8062e-08
3.7575e-08
3.7112e-08
3.6672e-08
3.6254e-08
3.5859e-08
3.5486e-08
3.5135e-08
3.4804e-08
3.4493e-08
3.4202e-08
3.393e-08
3.3677e-08
3.3441e-08
3.3222e-08
3.3019e-08
3.2832e-08
3.2659e-08
3.2501e-08
3.2357e-08
3.2225e-08
3.2106e-08
3.1998e-08
3.1902e-08
3.1816e-08
3.1741e-08
3.1674e-08
3.1617e-08
3.1573e-08
3.1543e-08
3.1512e-08
3.1429e-08
3.1243e-08
3.1188e-08
3.1818e-08
3.3586e-08
3.4365e-08
2.6283e-08
2.0077e-08
2.4559e-08
3.1168e-08
5.13e-08
1
1
1
1
1
1
1
1
1
1
1
1
1
1
1
1
1
1
1
1
1
1
1
1
1
1
1
1
1
1
1
1
1
1
1
1
1
1
1
1
1
1
1
1
1
1
1
1
1
1
1
1
1
1
1
1
1
1
1
1
1
1
1
1
1
1
1
1
1
1
1
1
1
1
1
1
1
1
1
1
1
1
1
1
1
1
1
1
1
1
1
1
1
1
1
1
1
1
1
1
1
1
1
1
1
1
1
1
1
1
1
1
1
1
1
1
1
1
1
1
1
1
1
1
1
1
1
1
1
1
1
1
1
1
1
1
1
1
1
1
1
1
1
1
1
1
1
1
1
1
1
1
1
1
1
1
1
1
1
1
1
1
1
1
1
1
1
1
1
1
1
1
1
1
1
1
1
1
1
1
1
1
1
1
1
1
1
1
1
1
1
1
1
1
1
1
1
1
1
1
1
1
1
1
1
1
1
1
1
1
1
1
1
1
1
1
1
1
1
1
1
1
1
1
1
1
1
1
1
1
1
1
1
1
1
1
1
1
1
1
1
1
1
1
1
1
1
1
1
1
1
1
1
1
1
1
1
1
1
1
1
1
1
1
1
1
1
1
1
1
1
1
1
1
1
0.99999
0.99998
0.99987
0.99766
0.92344
0.021403
0.00010078
1.5465e-06
1.1749e-07
1.6972e-08
8.3608e-09
7.8766e-09
1.6337e-08
4.7012e-08
1.5607e-07
4.4816e-07
9.8861e-07
1.6632e-06
2.1781e-06
2.4555e-06
2.5243e-06
2.5e-06
2.4378e-06
2.3761e-06
2.3179e-06
2.2636e-06
2.2061e-06
2.1581e-06
2.1151e-06
2.0824e-06
2.0601e-06
2.0342e-06
1.9753e-06
1.8857e-06
1.8337e-06
1.9809e-06
2.6611e-06
2.4677e-06
1.4402e-06
4.9876e-07
1.4833e-07
5.4839e-08
3.8992e-08
3.7043e-08
4.2729e-08
4.77e-08
6.0477e-08
6.9923e-08
7.5126e-08
7.6599e-08
7.5506e-08
7.3223e-08
7.0579e-08
6.8077e-08
6.5874e-08
6.4003e-08
6.2401e-08
6.0997e-08
5.9719e-08
5.8518e-08
5.7366e-08
5.6248e-08
5.516e-08
5.4102e-08
5.3073e-08
5.2074e-08
5.1105e-08
5.0165e-08
4.9253e-08
4.8369e-08
4.7512e-08
4.6682e-08
4.5878e-08
4.5099e-08
4.4345e-08
4.3617e-08
4.2913e-08
4.2235e-08
4.1581e-08
4.0952e-08
4.0347e-08
3.9766e-08
3.921e-08
3.8678e-08
3.8169e-08
3.7684e-08
3.7222e-08
3.6783e-08
3.6367e-08
3.5972e-08
3.5599e-08
3.5247e-08
3.4915e-08
3.4603e-08
3.431e-08
3.4035e-08
3.3778e-08
3.3539e-08
3.3316e-08
3.3109e-08
3.2917e-08
3.274e-08
3.2578e-08
3.2429e-08
3.2293e-08
3.2169e-08
3.2058e-08
3.1958e-08
3.1868e-08
3.179e-08
3.1722e-08
3.1667e-08
3.1627e-08
3.1588e-08
3.1496e-08
3.1304e-08
3.1243e-08
3.187e-08
3.3635e-08
3.4411e-08
2.6316e-08
2.0102e-08
2.4589e-08
3.1207e-08
5.1368e-08
1
1
1
1
1
1
1
1
1
1
1
1
1
1
1
1
1
1
1
1
1
1
1
1
1
1
1
1
1
1
1
1
1
1
1
1
1
1
1
1
1
1
1
1
1
1
1
1
1
1
1
1
1
1
1
1
1
1
1
1
1
1
1
1
1
1
1
1
1
1
1
1
1
1
1
1
1
1
1
1
1
1
1
1
1
1
1
1
1
1
1
1
1
1
1
1
1
1
1
1
1
1
1
1
1
1
1
1
1
1
1
1
1
1
1
1
1
1
1
1
1
1
1
1
1
1
1
1
1
1
1
1
1
1
1
1
1
1
1
1
1
1
1
1
1
1
1
1
1
1
1
1
1
1
1
1
1
1
1
1
1
1
1
1
1
1
1
1
1
1
1
1
1
1
1
1
1
1
1
1
1
1
1
1
1
1
1
1
1
1
1
1
1
1
1
1
1
1
1
1
1
1
1
1
1
1
1
1
1
1
1
1
1
1
1
1
1
1
1
1
1
1
1
1
1
1
1
1
1
1
1
1
1
1
1
1
1
1
1
1
1
1
1
1
1
1
1
1
1
1
1
1
1
1
1
1
1
1
1
1
1
1
1
1
1
1
1
1
1
1
1
1
1
1
1
1
1
1
0.99999
0.99983
0.9938
0.80749
0.010267
0.00010136
1.3407e-06
6.16e-08
8.3768e-09
4.4767e-09
5.9371e-09
1.5511e-08
5.2375e-08
1.7337e-07
4.9545e-07
1.0448e-06
1.6892e-06
2.1596e-06
2.4137e-06
2.4919e-06
2.4815e-06
2.4309e-06
2.3659e-06
2.2945e-06
2.2356e-06
2.1793e-06
2.1421e-06
2.1192e-06
2.0979e-06
2.0546e-06
1.9807e-06
1.9143e-06
1.9701e-06
2.353e-06
2.7191e-06
2.3614e-06
1.2677e-06
5.9433e-07
1.9491e-07
1.0048e-07
6.0349e-08
4.6884e-08
3.6776e-08
4.0519e-08
4.6017e-08
5.9473e-08
6.9123e-08
7.4089e-08
7.5356e-08
7.4205e-08
7.1958e-08
6.939e-08
6.6985e-08
6.4888e-08
6.3122e-08
6.1613e-08
6.028e-08
5.9051e-08
5.7883e-08
5.6751e-08
5.5649e-08
5.4575e-08
5.3529e-08
5.2514e-08
5.1528e-08
5.0573e-08
4.9646e-08
4.8749e-08
4.788e-08
4.7038e-08
4.6224e-08
4.5436e-08
4.4674e-08
4.3939e-08
4.3229e-08
4.2544e-08
4.1885e-08
4.1252e-08
4.0643e-08
4.0059e-08
3.9499e-08
3.8964e-08
3.8452e-08
3.7964e-08
3.75e-08
3.7058e-08
3.6638e-08
3.624e-08
3.5863e-08
3.5506e-08
3.517e-08
3.4853e-08
3.4555e-08
3.4275e-08
3.4013e-08
3.3768e-08
3.354e-08
3.3327e-08
3.3129e-08
3.2947e-08
3.2779e-08
3.2625e-08
3.2484e-08
3.2356e-08
3.224e-08
3.2137e-08
3.2044e-08
3.1964e-08
3.1897e-08
3.1847e-08
3.1798e-08
3.1698e-08
3.1497e-08
3.1429e-08
3.2053e-08
3.3823e-08
3.4598e-08
2.6458e-08
2.0211e-08
2.4719e-08
3.1369e-08
5.1626e-08
1
1
1
1
1
1
1
1
1
1
1
1
1
1
1
1
1
1
1
1
1
1
1
1
1
1
1
1
1
1
1
1
1
1
1
1
1
1
1
1
1
1
1
1
1
1
1
1
1
1
1
1
1
1
1
1
1
1
1
1
1
1
1
1
1
1
1
1
1
1
1
1
1
1
1
1
1
1
1
1
1
1
1
1
1
1
1
1
1
1
1
1
1
1
1
1
1
1
1
1
1
1
1
1
1
1
1
1
1
1
1
1
1
1
1
1
1
1
1
1
1
1
1
1
1
1
1
1
1
1
1
1
1
1
1
1
1
1
1
1
1
1
1
1
1
1
1
1
1
1
1
1
1
1
1
1
1
1
1
1
1
1
1
1
1
1
1
1
1
1
1
1
1
1
1
1
1
1
1
1
1
1
1
1
1
1
1
1
1
1
1
1
1
1
1
1
1
1
1
1
1
1
1
1
1
1
1
1
1
1
1
1
1
1
1
1
1
1
1
1
1
1
1
1
1
1
1
1
1
1
1
1
1
1
1
1
1
1
1
1
1
1
1
1
1
1
1
1
1
1
1
1
1
1
1
1
1
1
1
1
1
1
1
1
1
1
1
1
1
1
1
1
1
1
1
1
1
1
1
1
0.99998
0.99961
0.98997
0.7392
0.0045401
2.4932e-05
3.1697e-07
1.7585e-08
4.1978e-09
3.6407e-09
6.964e-09
1.9433e-08
6.7344e-08
2.069e-07
5.5841e-07
1.1173e-06
1.7395e-06
2.1787e-06
2.4015e-06
2.4684e-06
2.4355e-06
2.3763e-06
2.3206e-06
2.254e-06
2.2058e-06
2.1722e-06
2.1408e-06
2.1007e-06
2.0426e-06
1.9747e-06
1.9646e-06
2.1295e-06
2.6785e-06
3.1309e-06
2.5338e-06
1.832e-06
8.7923e-07
4.405e-07
1.8155e-07
1.1335e-07
6.0234e-08
4.517e-08
3.5764e-08
3.9877e-08
4.5414e-08
5.8491e-08
6.7785e-08
7.2575e-08
7.3814e-08
7.2717e-08
7.0562e-08
6.8105e-08
6.582e-08
6.3849e-08
6.2194e-08
6.077e-08
5.9493e-08
5.8296e-08
5.7145e-08
5.6027e-08
5.4938e-08
5.3877e-08
5.2845e-08
5.1843e-08
5.0872e-08
4.9931e-08
4.902e-08
4.8139e-08
4.7285e-08
4.646e-08
4.5663e-08
4.4893e-08
4.415e-08
4.3433e-08
4.2742e-08
4.2078e-08
4.1439e-08
4.0826e-08
4.0237e-08
3.9674e-08
3.9135e-08
3.8619e-08
3.8128e-08
3.7659e-08
3.7213e-08
3.679e-08
3.6387e-08
3.6006e-08
3.5645e-08
3.5304e-08
3.4982e-08
3.4679e-08
3.4394e-08
3.4126e-08
3.3875e-08
3.3641e-08
3.3423e-08
3.3221e-08
3.3034e-08
3.2861e-08
3.2703e-08
3.2558e-08
3.2427e-08
3.2308e-08
3.2202e-08
3.2108e-08
3.203e-08
3.1968e-08
3.1909e-08
3.1799e-08
3.1589e-08
3.1513e-08
3.2132e-08
3.3899e-08
3.467e-08
2.6511e-08
2.0249e-08
2.4764e-08
3.1424e-08
5.1712e-08
1
1
1
1
1
1
1
1
1
1
1
1
1
1
1
1
1
1
1
1
1
1
1
1
1
1
1
1
1
1
1
1
1
1
1
1
1
1
1
1
1
1
1
1
1
1
1
1
1
1
1
1
1
1
1
1
1
1
1
1
1
1
1
1
1
1
1
1
1
1
1
1
1
1
1
1
1
1
1
1
1
1
1
1
1
1
1
1
1
1
1
1
1
1
1
1
1
1
1
1
1
1
1
1
1
1
1
1
1
1
1
1
1
1
1
1
1
1
1
1
1
1
1
1
1
1
1
1
1
1
1
1
1
1
1
1
1
1
1
1
1
1
1
1
1
1
1
1
1
1
1
1
1
1
1
1
1
1
1
1
1
1
1
1
1
1
1
1
1
1
1
1
1
1
1
1
1
1
1
1
1
1
1
1
1
1
1
1
1
1
1
1
1
1
1
1
1
1
1
1
1
1
1
1
1
1
1
1
1
1
1
1
1
1
1
1
1
1
1
1
1
1
1
1
1
1
1
1
1
1
1
1
1
1
1
1
1
1
1
1
1
1
1
1
1
1
1
1
1
1
1
1
1
1
1
1
1
1
1
1
1
1
1
1
1
1
1
1
1
1
1
1
1
1
1
1
1
1
1
1
1
1
0.99996
0.99934
0.97734
0.21413
0.0006014
4.1084e-06
1.0646e-07
1.2533e-08
5.3705e-09
5.4064e-09
1.1216e-08
2.7982e-08
8.857e-08
2.5107e-07
6.4368e-07
1.2151e-06
1.8054e-06
2.1999e-06
2.3718e-06
2.4203e-06
2.403e-06
2.335e-06
2.2771e-06
2.2276e-06
2.1885e-06
2.1462e-06
2.0983e-06
2.0273e-06
1.9727e-06
1.9928e-06
2.1924e-06
2.6961e-06
2.9251e-06
3.0858e-06
2.283e-06
1.5865e-06
7.8982e-07
4.6259e-07
1.7937e-07
1.0983e-07
5.883e-08
4.4439e-08
3.5257e-08
3.9242e-08
4.471e-08
5.7739e-08
6.7122e-08
7.1952e-08
7.3074e-08
7.1764e-08
6.9427e-08
6.6926e-08
6.4705e-08
6.2839e-08
6.1277e-08
5.991e-08
5.8657e-08
5.7473e-08
5.6334e-08
5.5229e-08
5.4154e-08
5.3107e-08
5.2091e-08
5.1105e-08
5.015e-08
4.9226e-08
4.8332e-08
4.7467e-08
4.6632e-08
4.5825e-08
4.5047e-08
4.4296e-08
4.3572e-08
4.2875e-08
4.2205e-08
4.1561e-08
4.0942e-08
4.035e-08
3.9782e-08
3.9238e-08
3.8719e-08
3.8223e-08
3.775e-08
3.73e-08
3.6872e-08
3.6465e-08
3.6079e-08
3.5713e-08
3.5366e-08
3.5039e-08
3.4731e-08
3.444e-08
3.4168e-08
3.3912e-08
3.3673e-08
3.345e-08
3.3243e-08
3.3052e-08
3.2876e-08
3.2714e-08
3.2566e-08
3.2433e-08
3.2312e-08
3.2204e-08
3.2113e-08
3.204e-08
3.1969e-08
3.1849e-08
3.1629e-08
3.1545e-08
3.2156e-08
3.3918e-08
3.4682e-08
2.6516e-08
2.025e-08
2.4762e-08
3.1419e-08
5.1702e-08
1
1
1
1
1
1
1
1
1
1
1
1
1
1
1
1
1
1
1
1
1
1
1
1
1
1
1
1
1
1
1
1
1
1
1
1
1
1
1
1
1
1
1
1
1
1
1
1
1
1
1
1
1
1
1
1
1
1
1
1
1
1
1
1
1
1
1
1
1
1
1
1
1
1
1
1
1
1
1
1
1
1
1
1
1
1
1
1
1
1
1
1
1
1
1
1
1
1
1
1
1
1
1
1
1
1
1
1
1
1
1
1
1
1
1
1
1
1
1
1
1
1
1
1
1
1
1
1
1
1
1
1
1
1
1
1
1
1
1
1
1
1
1
1
1
1
1
1
1
1
1
1
1
1
1
1
1
1
1
1
1
1
1
1
1
1
1
1
1
1
1
1
1
1
1
1
1
1
1
1
1
1
1
1
1
1
1
1
1
1
1
1
1
1
1
1
1
1
1
1
1
1
1
1
1
1
1
1
1
1
1
1
1
1
1
1
1
1
1
1
1
1
1
1
1
1
1
1
1
1
1
1
1
1
1
1
1
1
1
1
1
1
1
1
1
1
1
1
1
1
1
1
1
1
1
1
1
1
1
1
1
1
1
1
1
1
1
1
0.99999
0.99999
1
1
1
1
1
1
1
1
1
1
1
1
1
0.99999
0.9999
0.99775
0.91859
0.031226
0.00017348
2.7551e-06
1.5202e-07
2.2047e-08
9.9734e-09
8.5155e-09
1.527e-08
3.5012e-08
1.0871e-07
3.1027e-07
7.2895e-07
1.298e-06
1.849e-06
2.2121e-06
2.3796e-06
2.3994e-06
2.365e-06
2.3075e-06
2.2542e-06
2.2008e-06
2.1574e-06
2.0928e-06
2.0289e-06
1.9739e-06
1.9954e-06
2.1302e-06
2.463e-06
3.1054e-06
3.3306e-06
3.3481e-06
2.3537e-06
1.58e-06
7.704e-07
4.4841e-07
1.7516e-07
1.0763e-07
5.7882e-08
4.4055e-08
3.5418e-08
4.0137e-08
4.6409e-08
6.0149e-08
6.9305e-08
7.3064e-08
7.2936e-08
7.0841e-08
6.8235e-08
6.5784e-08
6.3696e-08
6.1931e-08
6.0405e-08
5.9053e-08
5.7812e-08
5.6642e-08
5.5518e-08
5.4428e-08
5.3368e-08
5.2338e-08
5.1338e-08
5.037e-08
4.9432e-08
4.8526e-08
4.765e-08
4.6804e-08
4.5987e-08
4.5199e-08
4.444e-08
4.3709e-08
4.3005e-08
4.2329e-08
4.1679e-08
4.1055e-08
4.0457e-08
3.9883e-08
3.9335e-08
3.881e-08
3.8309e-08
3.7831e-08
3.7376e-08
3.6942e-08
3.653e-08
3.6138e-08
3.5767e-08
3.5415e-08
3.5082e-08
3.4768e-08
3.4473e-08
3.4195e-08
3.3934e-08
3.3691e-08
3.3464e-08
3.3253e-08
3.3058e-08
3.2879e-08
3.2714e-08
3.2564e-08
3.2428e-08
3.2306e-08
3.2201e-08
3.2115e-08
3.2033e-08
3.1901e-08
3.1671e-08
3.1577e-08
3.218e-08
3.3934e-08
3.4692e-08
2.6517e-08
2.0247e-08
2.4755e-08
3.1407e-08
5.1679e-08
1
1
1
1
1
1
1
1
1
1
1
1
1
1
1
1
1
1
1
1
1
1
1
1
1
1
1
1
1
1
1
1
1
1
1
1
1
1
1
1
1
1
1
1
1
1
1
1
1
1
1
1
1
1
1
1
1
1
1
1
1
1
1
1
1
1
1
1
1
1
1
1
1
1
1
1
1
1
1
1
1
1
1
1
1
1
1
1
1
1
1
1
1
1
1
1
1
1
1
1
1
1
1
1
1
1
1
1
1
1
1
1
1
1
1
1
1
1
1
1
1
1
1
1
1
1
1
1
1
1
1
1
1
1
1
1
1
1
1
1
1
1
1
1
1
1
1
1
1
1
1
1
1
1
1
1
1
1
1
1
1
1
1
1
1
1
1
1
1
1
1
1
1
1
1
1
1
1
1
1
1
1
1
1
1
1
1
1
1
1
1
1
1
1
1
1
1
1
1
1
1
1
1
1
1
1
1
1
1
1
1
1
1
1
1
1
1
1
1
1
1
1
1
1
1
1
1
1
1
1
1
1
1
1
1
1
1
1
1
1
1
1
0.99999
0.99999
0.99999
0.99999
0.99999
0.99999
0.99999
0.99999
0.99999
0.99999
0.99999
0.99999
1
1
1
1
1
1
1
1
1
1
1
1
1
1
1
1
1
1
1
1
1
1
1
1
1
1
1
1
1
1
1
0.99998
0.99972
0.99402
0.84495
0.019561
0.00019886
3.9595e-06
2.2595e-07
2.9842e-08
1.2762e-08
1.0111e-08
1.7917e-08
4.4677e-08
1.2915e-07
3.5508e-07
8.0161e-07
1.3875e-06
1.929e-06
2.2396e-06
2.368e-06
2.3776e-06
2.3462e-06
2.2886e-06
2.2351e-06
2.1662e-06
2.0997e-06
2.0232e-06
1.9748e-06
1.9589e-06
2.0182e-06
2.1944e-06
2.5338e-06
3.1262e-06
3.2874e-06
3.271e-06
2.2857e-06
1.5377e-06
7.5331e-07
4.3853e-07
1.7228e-07
1.0771e-07
6.0033e-08
4.797e-08
4.0183e-08
4.6174e-08
5.2381e-08
6.4945e-08
7.1461e-08
7.301e-08
7.1811e-08
6.9537e-08
6.7081e-08
6.4784e-08
6.275e-08
6.1009e-08
5.9508e-08
5.8183e-08
5.6969e-08
5.5823e-08
5.472e-08
5.3648e-08
5.2605e-08
5.1592e-08
5.061e-08
4.9659e-08
4.8739e-08
4.7851e-08
4.6993e-08
4.6166e-08
4.5369e-08
4.4601e-08
4.3862e-08
4.315e-08
4.2466e-08
4.1809e-08
4.1179e-08
4.0574e-08
3.9994e-08
3.944e-08
3.8909e-08
3.8402e-08
3.7918e-08
3.7456e-08
3.7016e-08
3.6598e-08
3.62e-08
3.5823e-08
3.5465e-08
3.5127e-08
3.4807e-08
3.4506e-08
3.4223e-08
3.3958e-08
3.371e-08
3.3479e-08
3.3265e-08
3.3067e-08
3.2885e-08
3.2718e-08
3.2566e-08
3.2429e-08
3.231e-08
3.221e-08
3.2115e-08
3.1971e-08
3.1728e-08
3.1624e-08
3.2217e-08
3.3964e-08
3.4713e-08
2.6527e-08
2.025e-08
2.4753e-08
3.1401e-08
5.1664e-08
1
1
1
1
1
1
1
1
1
1
1
1
1
1
1
1
1
1
1
1
1
1
1
1
1
1
1
1
1
1
1
1
1
1
1
1
1
1
1
1
1
1
1
1
1
1
1
1
1
1
1
1
1
1
1
1
1
1
1
1
1
1
1
1
1
1
1
1
1
1
1
1
1
1
1
1
1
1
1
1
1
1
1
1
1
1
1