/*--------------------------------*- C++ -*----------------------------------*\
| =========                 |                                                 |
| \\      /  F ield         | OpenFOAM: The Open Source CFD Toolbox           |
|  \\    /   O peration     | Version:  5.x                                   |
|   \\  /    A nd           | Web:      www.OpenFOAM.org                      |
|    \\/     M anipulation  |                                                 |
\*---------------------------------------------------------------------------*/
FoamFile
{
    version     2.0;
    format      ascii;
    class       volScalarField;
    location    "120";
    object      gamma;
}
// * * * * * * * * * * * * * * * * * * * * * * * * * * * * * * * * * * * * * //

dimensions      [0 0 0 0 0 0 0];

internalField   nonuniform List<scalar> 
86400
(
5.259e-06
6.349e-06
9.287e-06
1.608e-05
3.145e-05
4.784e-05
5.654e-05
6.319e-05
7.137e-05
6.969e-05
9.343e-05
0.0001102
0.0001273
0.0001213
0.0001428
0.0002224
0.0005855
0.001439
0.00223
0.002335
0.002225
0.002443
0.00349
0.004215
0.004392
0.005326
0.004856
0.004414
0.003786
0.003416
0.003132
0.003292
0.003537
0.003957
0.004638
0.006312
0.007313
0.007643
0.006352
0.006008
0.005468
0.005987
0.005853
0.004752
0.004246
0.004431
0.005442
0.006346
0.007419
0.007061
0.007072
0.007368
0.007826
0.008566
0.009233
0.01066
0.01232
0.01287
0.01231
0.01147
0.009823
0.009685
0.00942
0.009974
0.01201
0.01522
0.01675
0.01774
0.01563
0.0149
0.01717
0.02209
0.02543
0.02545
0.02503
0.02549
0.02548
0.02898
0.03287
0.033
0.03214
0.03
0.02923
0.03219
0.03899
0.04277
0.04513
0.04282
0.04243
0.04119
0.036
0.03624
0.03809
0.04524
0.04845
0.0493
0.04209
0.03854
0.03622
0.03375
0.03094
0.02541
0.02056
0.01526
0.01121
0.01079
0.01383
0.01865
0.01642
0.01125
0.006281
0.00409
0.003654
0.003854
0.003726
0.003469
0.003276
0.00315
0.003171
0.003215
0.003206
0.003119
0.002972
0.002767
0.002665
0.002666
0.002604
0.002522
0.002445
0.002305
0.00206
0.002225
0.002259
0.002072
0.001869
0.001778
0.00189
0.002333
0.001494
0.0006088
0.0002736
0.0001739
0.0001899
0.0002031
0.0001381
6.596e-05
3.636e-05
1.887e-05
1.345e-05
1.611e-05
2.69e-05
8.654e-05
0.0003588
0.0008931
0.001715
0.002736
0.003383
0.005301
0.1078
0.9844
6.486e-06
6.924e-06
9.357e-06
1.466e-05
2.919e-05
4.433e-05
5.057e-05
5.004e-05
4.36e-05
3.704e-05
4.926e-05
6.783e-05
0.0001057
0.000151
0.0001934
0.000248
0.0005696
0.00141
0.002591
0.004143
0.004645
0.004964
0.006104
0.007441
0.00795
0.008398
0.007874
0.007299
0.006791
0.005902
0.00543
0.005685
0.006216
0.007107
0.00846
0.01138
0.01372
0.01544
0.01436
0.01419
0.01307
0.0135
0.01336
0.01118
0.009036
0.008419
0.008527
0.009014
0.01029
0.01069
0.01142
0.01269
0.01443
0.01603
0.01448
0.01266
0.01106
0.009585
0.008417
0.008393
0.007611
0.007438
0.006939
0.00694
0.007828
0.01105
0.01355
0.01604
0.01567
0.0164
0.01926
0.02358
0.0221
0.01917
0.01626
0.01761
0.02262
0.03217
0.0394
0.04005
0.03718
0.03406
0.036
0.04103
0.05177
0.05873
0.06427
0.062
0.06375
0.06621
0.06445
0.06759
0.06934
0.06805
0.06257
0.05469
0.0434
0.03738
0.03393
0.0308
0.03046
0.03122
0.0335
0.03087
0.02293
0.01931
0.02232
0.02877
0.03137
0.02641
0.01515
0.009568
0.00791
0.008133
0.007899
0.007604
0.007639
0.00788
0.008556
0.009251
0.009763
0.009891
0.009707
0.009154
0.008887
0.008931
0.008618
0.008212
0.007809
0.007299
0.006574
0.006734
0.006363
0.006012
0.005586
0.004761
0.00409
0.003697
0.00218
0.0009417
0.0005891
0.0004046
0.0003793
0.0004465
0.0003877
0.0002832
0.0002078
0.0001548
0.0001635
0.0002008
0.0003106
0.0006179
0.001441
0.003321
0.009033
0.02556
0.06889
0.2778
0.6372
0.9727
9.29e-06
9.223e-06
1.149e-05
1.577e-05
2.907e-05
4.092e-05
4.297e-05
3.859e-05
2.859e-05
2.655e-05
3.693e-05
6.666e-05
0.0001144
0.0002006
0.000242
0.0003366
0.000807
0.002093
0.003317
0.005241
0.005147
0.005168
0.006416
0.008127
0.007894
0.009041
0.009789
0.01109
0.01303
0.01317
0.01217
0.01329
0.01314
0.01238
0.01153
0.01188
0.01237
0.01322
0.01133
0.01134
0.01146
0.01378
0.01551
0.01598
0.01362
0.01277
0.01281
0.01318
0.01461
0.016
0.01472
0.01257
0.01089
0.009881
0.008062
0.007781
0.007062
0.006047
0.005275
0.005411
0.005369
0.005677
0.005912
0.006856
0.007386
0.008966
0.0106
0.01262
0.01277
0.01443
0.01619
0.01601
0.01272
0.01175
0.01218
0.01821
0.03063
0.04719
0.05659
0.05946
0.05479
0.04834
0.04999
0.05607
0.0731
0.08199
0.08971
0.08855
0.07929
0.06702
0.05329
0.04425
0.03676
0.0379
0.03807
0.03733
0.035
0.03372
0.03015
0.02807
0.03023
0.0356
0.044
0.04443
0.03689
0.03247
0.0338
0.0435
0.0533
0.04959
0.0348
0.02606
0.02095
0.02097
0.0206
0.02072
0.01938
0.01722
0.01557
0.01439
0.0142
0.01498
0.01494
0.01421
0.01385
0.01394
0.01345
0.01277
0.01186
0.01113
0.01024
0.009868
0.007963
0.005977
0.00495
0.004168
0.004072
0.004357
0.003577
0.002305
0.00173
0.001396
0.001438
0.001702
0.001687
0.001374
0.001053
0.0008784
0.001024
0.001268
0.001766
0.002911
0.006389
0.01655
0.04913
0.147
0.4417
0.8052
0.9303
0.9933
1.403e-05
1.363e-05
1.46e-05
1.675e-05
2.631e-05
3.208e-05
2.88e-05
2.329e-05
1.775e-05
2.07e-05
2.707e-05
3.331e-05
3.828e-05
8.4e-05
0.0001247
0.0002432
0.0005986
0.0009865
0.0009878
0.001096
0.0009262
0.0007633
0.001216
0.001878
0.00191
0.002608
0.00368
0.005189
0.008059
0.01066
0.01024
0.01277
0.01369
0.01342
0.01204
0.01123
0.01074
0.01138
0.009282
0.01001
0.01208
0.01807
0.02768
0.03652
0.02595
0.01745
0.01116
0.008084
0.007399
0.008618
0.007314
0.005707
0.005163
0.004916
0.004096
0.004083
0.00357
0.00311
0.003108
0.003799
0.004302
0.005176
0.006027
0.006729
0.0069
0.00803
0.008739
0.009702
0.009954
0.01268
0.01628
0.01599
0.0136
0.01381
0.01306
0.02037
0.03369
0.04558
0.04539
0.0476
0.04284
0.03885
0.04001
0.04235
0.04718
0.04916
0.05115
0.04969
0.04765
0.0481
0.04939
0.04977
0.04344
0.04454
0.04249
0.04025
0.03852
0.03849
0.03441
0.03442
0.03559
0.03773
0.0488
0.05064
0.03959
0.03341
0.02964
0.03637
0.04787
0.05694
0.04443
0.03767
0.03015
0.02996
0.03108
0.03483
0.03461
0.03177
0.02823
0.02539
0.02392
0.02603
0.0264
0.02539
0.02491
0.0251
0.02433
0.02328
0.02231
0.02132
0.02018
0.01893
0.01441
0.01048
0.007622
0.005259
0.004134
0.003463
0.003242
0.003191
0.002947
0.002692
0.002827
0.003404
0.004247
0.004758
0.004794
0.005158
0.007877
0.0116
0.0187
0.02784
0.04947
0.112
0.3361
0.6679
0.8726
0.9758
0.9967
0.9998
2.481e-05
2.65e-05
2.599e-05
2.695e-05
3.162e-05
2.86e-05
1.837e-05
1.569e-05
1.446e-05
2.047e-05
2.303e-05
1.717e-05
1.128e-05
2.419e-05
4.347e-05
0.0001512
0.0005529
0.0005135
0.0002404
0.0002083
0.0002037
0.0001792
0.0003849
0.0005558
0.0005661
0.00102
0.002247
0.005345
0.01087
0.01342
0.008158
0.006821
0.005515
0.004851
0.00458
0.004193
0.003517
0.004276
0.00474
0.007326
0.009417
0.01206
0.01041
0.008959
0.004831
0.003064
0.001693
0.001377
0.001635
0.002884
0.003385
0.003538
0.003279
0.003413
0.003125
0.003304
0.003096
0.002877
0.003623
0.005393
0.00736
0.009869
0.01293
0.01443
0.01208
0.009751
0.008635
0.007753
0.007117
0.008639
0.01105
0.009877
0.009899
0.01164
0.01341
0.0187
0.02857
0.03079
0.02787
0.03078
0.02808
0.02527
0.02706
0.03137
0.03837
0.04517
0.04822
0.04367
0.03961
0.03892
0.03814
0.04404
0.04373
0.04729
0.0442
0.04487
0.03557
0.03294
0.0302
0.02763
0.02124
0.01451
0.01301
0.01359
0.01404
0.02007
0.02466
0.02731
0.03387
0.0519
0.04562
0.04465
0.03882
0.03933
0.03532
0.03186
0.02433
0.01782
0.01266
0.01173
0.01089
0.01172
0.01177
0.01146
0.01144
0.01173
0.01179
0.01178
0.01183
0.01183
0.01167
0.0103
0.007178
0.004895
0.002919
0.001934
0.001622
0.001821
0.002034
0.002581
0.002885
0.003191
0.003841
0.005226
0.008239
0.01157
0.01495
0.01896
0.03117
0.04641
0.08164
0.1439
0.3029
0.5897
0.7992
0.9185
0.9761
0.9967
0.9997
1
3.511e-05
4.499e-05
4.345e-05
4.423e-05
3.442e-05
2.376e-05
1.301e-05
1.25e-05
1.593e-05
3.09e-05
3.524e-05
1.583e-05
6.364e-06
9.79e-06
3.27e-05
0.0001383
0.0004516
0.0003135
0.0001318
0.0001335
0.0002001
0.0002202
0.0005286
0.0003251
0.0001729
0.000185
0.00036
0.0009687
0.003199
0.003701
0.001935
0.001411
0.001151
0.001125
0.001555
0.001694
0.00121
0.001269
0.00143
0.001593
0.001264
0.001097
0.0005543
0.0003307
0.0001686
7.033e-05
1.742e-05
1.281e-05
1.785e-05
4.643e-05
8.425e-05
0.0001664
0.0002825
0.0004229
0.0005121
0.0005017
0.0004231
0.0005035
0.001295
0.003438
0.007134
0.009716
0.009084
0.008318
0.006427
0.004997
0.006509
0.00777
0.007618
0.009565
0.01282
0.01069
0.01068
0.01186
0.01141
0.01249
0.01311
0.01302
0.01314
0.01786
0.02188
0.02923
0.03751
0.04856
0.0606
0.06893
0.06663
0.05678
0.05295
0.05816
0.0607
0.05189
0.03296
0.02138
0.01206
0.008652
0.005323
0.005176
0.005051
0.006699
0.007036
0.005975
0.00499
0.00456
0.004123
0.005825
0.0065
0.00844
0.01197
0.01421
0.01128
0.01126
0.01077
0.01209
0.01126
0.009961
0.007669
0.005952
0.004668
0.004539
0.004098
0.004136
0.004015
0.003949
0.003984
0.004089
0.004245
0.004448
0.004703
0.004961
0.005122
0.004831
0.003943
0.003356
0.002402
0.001831
0.001467
0.001673
0.002019
0.002921
0.003618
0.004404
0.005775
0.008668
0.01563
0.0254
0.03943
0.06319
0.111
0.2132
0.445
0.6418
0.8001
0.9069
0.9664
0.9909
0.9982
0.9997
1
1
4.125e-05
6.322e-05
5.641e-05
5.02e-05
3.269e-05
2.132e-05
1.169e-05
1.658e-05
3.742e-05
8.958e-05
8.986e-05
3.142e-05
6.527e-06
6.976e-06
1.472e-05
8.186e-05
0.0003971
0.0005177
0.0003281
0.000466
0.0009128
0.0009525
0.001608
0.0004449
0.0001463
9.859e-05
0.0001542
0.0003461
0.001394
0.001616
0.0008463
0.0004809
0.0004426
0.0005649
0.0008966
0.0009186
0.0004881
0.0004056
0.0005591
0.0006073
0.0003251
0.0001496
3.561e-05
1.211e-05
5.672e-06
1.344e-06
2.237e-07
1.47e-07
2.271e-07
8.861e-07
2.352e-06
5.963e-06
1.33e-05
2.694e-05
3.957e-05
4.11e-05
4.053e-05
6.916e-05
0.0003459
0.001404
0.004644
0.007988
0.007725
0.00829
0.008654
0.006881
0.01009
0.01271
0.01225
0.01202
0.01611
0.01065
0.009135
0.009447
0.009755
0.01214
0.01264
0.01183
0.009896
0.0113
0.0143
0.02401
0.03485
0.04093
0.0532
0.06696
0.07174
0.07228
0.08668
0.1107
0.1009
0.09253
0.05849
0.03323
0.01407
0.008615
0.004601
0.004554
0.003828
0.005993
0.00646
0.005061
0.004237
0.003017
0.001956
0.001832
0.001746
0.00156
0.002486
0.002938
0.002974
0.003444
0.003541
0.003946
0.003883
0.003623
0.002808
0.002477
0.002114
0.002289
0.002251
0.002287
0.002249
0.002182
0.00218
0.002213
0.00227
0.002357
0.002501
0.002697
0.002932
0.003172
0.003241
0.003436
0.00304
0.003033
0.003504
0.004918
0.007331
0.01256
0.01818
0.02539
0.03538
0.052
0.08276
0.1322
0.2412
0.4324
0.5923
0.7405
0.8381
0.9188
0.9713
0.9919
0.998
0.9996
0.9999
1
1
1
6.059e-05
8.944e-05
6.488e-05
5.203e-05
3.573e-05
2.511e-05
1.835e-05
4.216e-05
9.072e-05
0.0001367
0.0001334
4.1e-05
8.134e-06
7.75e-06
1.502e-05
7.226e-05
0.0003924
0.0009593
0.001537
0.004408
0.008056
0.0075
0.008638
0.002318
0.0005706
0.0001701
0.0001916
0.0002785
0.0008543
0.001068
0.0007017
0.0006317
0.0006369
0.0008631
0.001192
0.001081
0.0005343
0.0005044
0.0008927
0.0005635
0.0001811
3.837e-05
7.387e-06
1.71e-06
9.517e-07
1.663e-07
2.401e-08
1.549e-08
2.826e-08
1.232e-07
4.123e-07
1.502e-06
5.563e-06
1.701e-05
2.573e-05
1.457e-05
8.327e-06
1.03e-05
4.973e-05
0.0002694
0.001588
0.004539
0.005907
0.00781
0.009503
0.008462
0.01217
0.01383
0.01114
0.008249
0.009028
0.006646
0.005744
0.006233
0.008128
0.0105
0.01151
0.01692
0.01906
0.03272
0.0564
0.1314
0.2378
0.3568
0.4805
0.6384
0.763
0.8032
0.8607
0.904
0.9037
0.8973
0.8575
0.702
0.3316
0.1387
0.05257
0.04295
0.03014
0.02621
0.01582
0.01454
0.008469
0.00382
0.00144
0.000901
0.001078
0.001006
0.001361
0.00088
0.0006858
0.0006675
0.0008675
0.001198
0.001325
0.001304
0.001495
0.001741
0.001854
0.002483
0.002823
0.003068
0.003287
0.003334
0.003283
0.003316
0.003415
0.003558
0.003832
0.004313
0.005136
0.006546
0.008838
0.01226
0.01446
0.01596
0.01792
0.02211
0.03169
0.05461
0.08709
0.1426
0.2381
0.3939
0.5308
0.669
0.7944
0.8792
0.9305
0.9676
0.9848
0.9947
0.9986
0.9997
0.9999
1
1
1
1
1
8.457e-05
0.0001004
6.264e-05
4.683e-05
3.348e-05
2.87e-05
3.632e-05
7.603e-05
0.0001116
0.0001266
8.618e-05
3.546e-05
1.682e-05
2.113e-05
4.512e-05
0.0001451
0.0003683
0.0008713
0.001709
0.003038
0.006145
0.009208
0.01664
0.009682
0.003658
0.001313
0.0006988
0.0007067
0.001261
0.001622
0.00132
0.00169
0.001543
0.001807
0.00153
0.000892
0.0003166
0.0003865
0.0006618
0.0002406
5.595e-05
9.468e-06
2.19e-06
6.616e-07
6.561e-07
1.948e-07
5.597e-08
4.265e-08
7.679e-08
1.259e-07
2.687e-07
6.697e-07
2.012e-06
5.713e-06
9.553e-06
6.185e-06
3.098e-06
3.209e-06
1.128e-05
7.12e-05
0.0006963
0.003318
0.007024
0.01032
0.01086
0.006889
0.006919
0.007079
0.005405
0.004058
0.004573
0.004007
0.004167
0.005917
0.01385
0.03437
0.06597
0.1564
0.2926
0.5474
0.7457
0.8712
0.9293
0.957
0.9752
0.9884
0.994
0.9939
0.9933
0.9924
0.9885
0.9863
0.9847
0.9705
0.9459
0.9213
0.8757
0.8199
0.6955
0.4963
0.2299
0.1531
0.07363
0.02721
0.0107
0.004584
0.00347
0.002405
0.002061
0.0007823
0.000534
0.0003538
0.0003592
0.0004534
0.0006695
0.001178
0.002102
0.002639
0.002612
0.002715
0.002875
0.003451
0.004171
0.004687
0.004855
0.00497
0.005362
0.005969
0.006954
0.008624
0.01174
0.01787
0.02925
0.04709
0.07118
0.1033
0.1515
0.2328
0.3288
0.4551
0.5783
0.7145
0.824
0.8957
0.9329
0.9603
0.9801
0.9907
0.9956
0.998
0.9992
0.9997
0.9999
1
1
1
1
1
1
1
7.242e-05
7.267e-05
5.063e-05
4.128e-05
3.803e-05
4.518e-05
5.412e-05
7.597e-05
8.079e-05
7.619e-05
4.379e-05
3.137e-05
3.433e-05
6.361e-05
0.0001662
0.0003402
0.0007915
0.0008783
0.001052
0.0008731
0.001412
0.002882
0.008692
0.01388
0.01023
0.004339
0.001552
0.001313
0.001306
0.00206
0.002827
0.005073
0.004842
0.004871
0.002072
0.000887
0.0004375
0.0005962
0.0005513
0.0001124
2.028e-05
3.279e-06
1.204e-06
7.967e-07
1.021e-06
4.599e-07
3.16e-07
3.543e-07
3.623e-07
2.681e-07
2.548e-07
3.036e-07
1.001e-06
4.082e-06
8.316e-06
7.081e-06
4.798e-06
4.384e-06
1.02e-05
6.073e-05
0.0004812
0.002758
0.005634
0.007754
0.006872
0.00383
0.002736
0.003288
0.003517
0.004081
0.007065
0.01016
0.02055
0.05462
0.1495
0.3519
0.5641
0.7386
0.8441
0.9175
0.9625
0.9832
0.9922
0.9959
0.998
0.9993
0.9996
0.9995
0.9994
0.999
0.9986
0.9985
0.9987
0.9979
0.9969
0.9954
0.9933
0.9886
0.9765
0.9479
0.9011
0.8599
0.7718
0.586
0.2325
0.08966
0.04791
0.02706
0.01554
0.004338
0.001824
0.0007385
0.0004498
0.0002643
0.0003262
0.0006943
0.001851
0.003807
0.005207
0.004979
0.005772
0.008922
0.01235
0.01591
0.02033
0.02568
0.03573
0.05035
0.06917
0.08951
0.1239
0.1747
0.2156
0.2795
0.4044
0.5564
0.698
0.8042
0.8438
0.8808
0.9176
0.9558
0.98
0.9916
0.9957
0.9977
0.9989
0.9995
0.9997
0.9999
0.9999
1
1
1
1
1
1
1
1
1
6.378e-05
5.49e-05
4.671e-05
5.343e-05
7.037e-05
5.592e-05
3.299e-05
2.592e-05
2e-05
2.158e-05
2.402e-05
3.186e-05
8.023e-05
0.0002609
0.0005279
0.0009736
0.001242
0.0006373
0.0004771
0.0002437
0.0003686
0.0006905
0.003574
0.0125
0.0185
0.01159
0.007391
0.004848
0.002965
0.0036
0.003713
0.004313
0.002993
0.002319
0.001014
0.0004698
0.0003549
0.000751
0.0005254
0.000119
1.574e-05
3.179e-06
8.704e-07
5.62e-07
5.152e-07
5.882e-07
1.965e-06
4.548e-06
4.773e-06
1.616e-06
4.003e-07
1.988e-07
6.621e-07
4.986e-06
2.183e-05
4.847e-05
4.914e-05
3.691e-05
5.439e-05
0.0002463
0.001096
0.003555
0.005749
0.006793
0.004958
0.00315
0.002444
0.004016
0.007162
0.01426
0.03124
0.09343
0.2568
0.5952
0.7788
0.8598
0.9135
0.9475
0.9714
0.9863
0.9943
0.9973
0.9988
0.9994
0.9997
0.9999
0.9999
0.9999
0.9999
0.9998
0.9997
0.9998
0.9999
0.9999
0.9998
0.9997
0.9996
0.999
0.9978
0.9939
0.9869
0.9789
0.9659
0.9484
0.924
0.8723
0.7829
0.6379
0.4103
0.1644
0.07467
0.02408
0.007395
0.002346
0.001901
0.003147
0.007546
0.01397
0.01933
0.01869
0.02351
0.04023
0.06093
0.08376
0.1161
0.1503
0.1847
0.2239
0.3076
0.4333
0.5936
0.7208
0.7661
0.8032
0.8614
0.9167
0.9583
0.9816
0.9887
0.9925
0.9951
0.9975
0.9989
0.9995
0.9997
0.9999
0.9999
1
1
1
1
1
1
1
1
1
1
1
1
1
6.151e-05
5.239e-05
5.304e-05
7.276e-05
0.0001027
7.867e-05
2.918e-05
1.576e-05
8.706e-06
1.626e-05
2.755e-05
0.0001059
0.0003877
0.0008596
0.001476
0.002548
0.001992
0.001067
0.0005698
0.0002262
0.0003236
0.0007973
0.004478
0.01448
0.0238
0.01687
0.01457
0.009678
0.006937
0.006689
0.006231
0.005048
0.002754
0.00144
0.0009234
0.0005561
0.0005656
0.001328
0.000595
0.0001133
1.289e-05
1.743e-06
3.504e-07
2.411e-07
1.549e-07
3.138e-07
1.703e-06
9.052e-06
1.013e-05
3.139e-06
4.678e-07
2.323e-07
9.834e-07
1.194e-05
8.298e-05
0.0002057
0.0002649
0.0002599
0.0003245
0.0008154
0.001324
0.002061
0.002431
0.003092
0.002836
0.004057
0.006302
0.01786
0.05361
0.1673
0.4549
0.714
0.8471
0.9193
0.9497
0.9645
0.9767
0.987
0.9942
0.9975
0.9989
0.9995
0.9997
0.9999
0.9999
1
1
1
1
1
1
1
1
1
0.9999
0.9999
0.9997
0.9994
0.999
0.998
0.9966
0.9955
0.9938
0.992
0.9892
0.9827
0.9738
0.9656
0.954
0.9468
0.9331
0.8876
0.7719
0.4549
0.1478
0.1091
0.1267
0.1471
0.162
0.1477
0.1774
0.2533
0.3489
0.4444
0.5689
0.6994
0.805
0.851
0.9011
0.9287
0.9561
0.9754
0.9833
0.9871
0.992
0.9957
0.998
0.9991
0.9995
0.9997
0.9998
0.9999
0.9999
1
1
1
1
1
1
1
1
1
1
1
1
1
1
1
1
1
4.51e-05
4.459e-05
4.905e-05
6.441e-05
0.0001102
9.35e-05
3.188e-05
1.715e-05
1.743e-05
3.812e-05
0.0001047
0.000506
0.001146
0.002072
0.002725
0.002955
0.002137
0.001289
0.0006206
0.0002719
0.0003581
0.0008918
0.003769
0.00948
0.01689
0.01461
0.01793
0.01469
0.0135
0.01159
0.01146
0.007881
0.004863
0.003104
0.001959
0.001306
0.00141
0.00259
0.000854
0.0001956
2.798e-05
4.09e-06
5.637e-07
4.152e-07
2.381e-07
6.404e-07
5.009e-06
4.039e-05
3.876e-05
1.374e-05
1.35e-06
4.825e-07
1.363e-06
1.531e-05
8.653e-05
0.0002649
0.0004779
0.0006097
0.0009205
0.001708
0.001828
0.002074
0.002015
0.00373
0.007452
0.02113
0.05895
0.2519
0.6207
0.8112
0.8964
0.9372
0.959
0.9736
0.9829
0.9896
0.994
0.997
0.9986
0.9993
0.9996
0.9998
0.9998
0.9999
0.9999
0.9999
0.9999
0.9999
1
1
1
1
1
1
0.9999
0.9999
0.9998
0.9997
0.9996
0.9994
0.9993
0.9991
0.999
0.9989
0.9987
0.9978
0.9963
0.9948
0.9945
0.9957
0.996
0.9947
0.9896
0.9726
0.9388
0.9072
0.8741
0.8626
0.8572
0.8493
0.8724
0.8964
0.9149
0.9321
0.9548
0.9746
0.987
0.9913
0.9947
0.9964
0.9979
0.9989
0.9993
0.9995
0.9997
0.9998
0.9999
0.9999
1
1
1
1
1
1
1
1
1
1
1
1
1
1
1
1
1
1
1
1
1
1
6.587e-05
6.361e-05
7.358e-05
8.067e-05
0.000129
0.0001466
7.145e-05
6.536e-05
6.86e-05
0.0001561
0.0003846
0.001308
0.001752
0.002207
0.002006
0.001846
0.00152
0.001022
0.00062
0.0004667
0.0006978
0.001528
0.003513
0.005725
0.006714
0.005799
0.008521
0.008261
0.009861
0.01207
0.01427
0.01209
0.01011
0.006391
0.003482
0.001962
0.001598
0.002441
0.001372
0.0006602
0.0001653
3.599e-05
6.173e-06
4.513e-06
2.803e-06
7.216e-06
3.61e-05
0.0002533
0.0002973
0.0001557
2.089e-05
9.35e-06
1.741e-05
7.589e-05
0.0002543
0.0005089
0.0007163
0.001033
0.00142
0.002262
0.002635
0.003655
0.006619
0.02413
0.0857
0.3599
0.6783
0.8416
0.9125
0.9537
0.976
0.9864
0.9902
0.9926
0.9947
0.9966
0.998
0.999
0.9995
0.9997
0.9998
0.9999
0.9999
0.9999
0.9999
0.9999
0.9999
0.9999
1
1
1
1
1
1
1
0.9999
0.9999
0.9999
0.9999
0.9999
0.9999
0.9998
0.9998
0.9998
0.9998
0.9997
0.9996
0.9994
0.9994
0.9996
0.9996
0.9996
0.9994
0.9986
0.9966
0.9932
0.9881
0.9863
0.9871
0.9896
0.9926
0.9945
0.9955
0.9963
0.9978
0.9988
0.9995
0.9997
0.9998
0.9998
0.9999
0.9999
1
1
1
1
1
1
1
1
1
1
1
1
1
1
1
1
1
1
1
1
1
1
1
1
1
1
1
1
0.0001633
0.0001522
0.0001924
0.0001128
0.0001316
0.0001057
8.827e-05
0.0001829
0.0003996
0.000452
0.0005915
0.0008875
0.001109
0.001327
0.001314
0.0007638
0.0002407
7.856e-05
3.498e-05
2.649e-05
5.877e-05
0.0002052
0.0007151
0.001619
0.002527
0.002561
0.003483
0.003391
0.003708
0.004017
0.005056
0.006895
0.009574
0.007769
0.004145
0.002054
0.00141
0.002304
0.002254
0.002237
0.001276
0.0005027
0.0001431
0.0001123
6.995e-05
0.0001722
0.000476
0.001914
0.002415
0.001665
0.000442
0.0001829
0.0001761
0.0002862
0.0005683
0.0007432
0.0009678
0.001377
0.002215
0.004405
0.009656
0.02382
0.07144
0.3403
0.6697
0.8305
0.9043
0.9489
0.9696
0.9837
0.9914
0.9954
0.9967
0.9976
0.9982
0.9987
0.9991
0.9995
0.9997
0.9999
0.9999
1
1
1
1
1
1
1
1
1
1
1
1
0.9999
0.9999
0.9999
1
1
1
1
1
0.9999
0.9999
0.9999
0.9999
0.9999
0.9999
0.9998
0.9998
0.9998
0.9998
0.9998
0.9998
0.9998
0.9997
0.9995
0.9993
0.9992
0.9993
0.9995
0.9997
0.9997
0.9998
0.9998
0.9999
0.9999
1
1
1
1
1
1
1
1
1
1
1
1
1
1
1
1
1
1
1
1
1
1
1
1
1
1
1
1
1
1
1
1
1
1
0.0004502
0.0004732
0.0006797
0.000233
0.0001553
0.0001137
0.0001656
0.0005909
0.001479
0.001018
0.0006506
0.0004406
0.0003294
0.0007095
0.0004958
0.0001165
2.467e-05
5.427e-06
2.386e-06
1.993e-06
6.981e-06
4.954e-05
0.000285
0.0009582
0.002264
0.00222
0.002806
0.002999
0.002757
0.002769
0.003858
0.006885
0.01214
0.01275
0.006953
0.00311
0.002176
0.003062
0.004044
0.005995
0.006952
0.004848
0.002552
0.002353
0.001534
0.001394
0.001706
0.003226
0.00508
0.006607
0.004761
0.002504
0.001967
0.001391
0.001676
0.001671
0.002309
0.003951
0.0102
0.02279
0.08031
0.2644
0.5935
0.7989
0.884
0.9271
0.9616
0.9824
0.99
0.9945
0.9966
0.9982
0.9988
0.9992
0.9994
0.9994
0.9994
0.9996
0.9998
0.9999
1
1
1
1
1
1
1
1
1
1
1
1
0.9999
0.9999
0.9999
1
1
1
1
1
1
1
1
1
1
1
0.9999
0.9999
0.9999
0.9999
0.9999
0.9999
0.9999
0.9999
0.9999
0.9999
0.9999
0.9999
0.9999
1
1
1
1
1
1
1
1
1
1
1
1
1
1
1
1
1
1
1
1
1
1
1
1
1
1
1
1
1
1
1
1
1
1
1
1
1
1
1
1
1
0.0009906
0.001166
0.002381
0.0007339
0.0002302
0.0001234
0.0002604
0.0009447
0.002361
0.001546
0.0006086
0.0003266
0.0002911
0.0006691
0.0001809
2.088e-05
4.181e-06
1.137e-06
8.225e-07
8.716e-07
4.106e-06
3.16e-05
0.0002191
0.0009557
0.003548
0.002959
0.004007
0.003905
0.00266
0.002155
0.002508
0.004911
0.009769
0.01187
0.007705
0.004634
0.004578
0.005808
0.008952
0.01299
0.0175
0.01717
0.01494
0.01099
0.006237
0.003438
0.002669
0.0034
0.005728
0.008047
0.006984
0.004515
0.003805
0.003126
0.004687
0.006108
0.01093
0.02466
0.07486
0.2216
0.5884
0.7658
0.8724
0.9328
0.9697
0.9874
0.9964
0.9988
0.9993
0.9994
0.9991
0.9991
0.9994
0.9996
0.9997
0.9996
0.9993
0.9996
0.9999
1
1
1
1
1
1
1
1
1
0.9999
0.9999
0.9999
1
1
1
1
1
1
1
1
1
1
1
1
1
1
1
1
1
1
0.9999
0.9999
0.9999
0.9999
0.9999
1
1
1
1
1
1
1
1
1
1
1
1
1
1
1
1
1
1
1
1
1
1
1
1
1
1
1
1
1
1
1
1
1
1
1
1
1
1
1
1
1
1
1
1
1
1
0.001757
0.002434
0.004382
0.001415
0.0003417
0.0002907
0.0005599
0.002126
0.003169
0.001707
0.0005041
0.0002212
0.0001928
0.0003249
3.955e-05
5.889e-06
2.17e-06
1.331e-06
1.794e-06
2.383e-06
1.089e-05
5.786e-05
0.0004567
0.001869
0.006624
0.004652
0.005331
0.005125
0.003851
0.003602
0.003781
0.005927
0.01082
0.01235
0.008739
0.00692
0.00861
0.01057
0.01343
0.01615
0.02188
0.02571
0.03507
0.02836
0.01564
0.00657
0.003238
0.002587
0.00375
0.00599
0.00675
0.007023
0.009076
0.01125
0.01831
0.03724
0.09094
0.2125
0.5523
0.7461
0.8545
0.9197
0.9698
0.9903
0.9978
0.9994
0.9998
0.9999
0.9999
0.9999
0.9998
0.9997
0.9997
0.9997
0.9997
0.9997
0.9995
0.9998
0.9999
1
1
1
1
1
1
1
1
0.9999
0.9998
0.9998
0.9998
0.9999
0.9999
1
1
1
0.9999
0.9999
0.9999
0.9999
0.9999
0.9999
0.9999
1
1
1
1
1
1
1
1
0.9999
0.9999
1
1
1
1
1
1
1
1
1
1
1
1
1
1
1
1
1
1
1
1
1
1
1
1
1
1
1
1
1
1
1
1
1
1
1
1
1
1
1
1
1
1
1
1
1
1
1
0.001879
0.002927
0.004119
0.001442
0.0003034
0.000387
0.001038
0.004661
0.005431
0.00267
0.0007965
0.0002834
0.0001535
0.0001612
1.903e-05
4.304e-06
4.856e-06
8.158e-06
1.629e-05
2.384e-05
8.519e-05
0.0003035
0.002029
0.007195
0.0194
0.01143
0.01038
0.007761
0.005324
0.004335
0.004782
0.0072
0.01312
0.01601
0.0127
0.01158
0.01618
0.02072
0.02095
0.01666
0.01466
0.01362
0.01809
0.01799
0.01246
0.00696
0.004666
0.003019
0.002961
0.004637
0.006258
0.01051
0.02265
0.04114
0.07513
0.1859
0.4744
0.6911
0.8369
0.9038
0.9598
0.9852
0.9965
0.9991
0.9998
0.9999
1
1
1
1
0.9999
0.9997
0.9996
0.9995
0.9995
0.9997
0.9996
0.9998
0.9999
0.9999
0.9999
0.9999
0.9998
0.9998
0.9997
0.9996
0.9993
0.9988
0.9983
0.9988
0.9992
0.9997
0.9998
0.9999
0.9999
0.9999
0.9997
0.9995
0.9994
0.9995
0.9995
0.9997
0.9998
0.9999
0.9999
0.9999
0.9999
1
1
1
1
1
1
1
1
1
1
1
1
1
1
1
1
1
1
1
1
1
1
1
1
1
1
1
1
1
1
1
1
1
1
1
1
1
1
1
1
1
1
1
1
1
1
1
1
1
1
1
1
1
0.002406
0.00311
0.003566
0.001472
0.0003476
0.000693
0.001665
0.005886
0.006657
0.00446
0.001657
0.0007564
0.0003381
0.0002262
3.666e-05
1.489e-05
3.404e-05
8.693e-05
0.0001952
0.0002796
0.0008613
0.002013
0.006817
0.01625
0.02489
0.01469
0.01084
0.008409
0.006307
0.00548
0.006004
0.009288
0.0176
0.02418
0.02127
0.0188
0.02097
0.02006
0.01523
0.00953
0.005674
0.004658
0.005712
0.008434
0.01063
0.01096
0.01009
0.006504
0.005435
0.006201
0.009801
0.01814
0.05492
0.119
0.3104
0.6103
0.7708
0.8614
0.9397
0.9794
0.9956
0.9988
0.9997
0.9999
1
1
1
1
1
1
1
0.9999
0.9998
0.9995
0.999
0.9995
0.9995
0.9997
0.9996
0.9993
0.9982
0.9976
0.9953
0.9949
0.9935
0.9916
0.9867
0.9816
0.9812
0.9877
0.9921
0.9971
0.9986
0.9991
0.999
0.9986
0.9966
0.9953
0.9954
0.9968
0.998
0.9991
0.9996
0.9998
0.9998
0.9998
0.9999
0.9999
1
1
1
1
1
1
1
1
1
1
1
1
1
1
1
1
1
1
1
1
1
1
1
1
1
1
1
1
1
1
1
1
1
1
1
1
1
1
1
1
1
1
1
1
1
1
1
1
1
1
1
1
0.003329
0.003716
0.004135
0.001435
0.0004206
0.0007257
0.001189
0.00407
0.005962
0.006167
0.002938
0.002423
0.001379
0.000816
0.0001976
9.892e-05
0.0001728
0.0003448
0.0006965
0.001503
0.00398
0.007162
0.01282
0.0157
0.0127
0.009588
0.01009
0.007109
0.005158
0.004014
0.00331
0.004648
0.0111
0.02118
0.02512
0.02378
0.02227
0.02005
0.01434
0.009022
0.004505
0.003062
0.003204
0.005035
0.009011
0.01498
0.0198
0.01531
0.01575
0.01662
0.02881
0.05377
0.177
0.4055
0.6543
0.7988
0.892
0.9436
0.9827
0.9962
0.9994
0.9998
0.9999
0.9999
1
1
1
0.9999
1
1
1
0.9999
0.9998
0.999
0.9971
0.9985
0.9984
0.9982
0.9964
0.9908
0.9702
0.9584
0.9397
0.9193
0.8896
0.8812
0.8647
0.8554
0.8659
0.8802
0.902
0.9483
0.9709
0.9797
0.9807
0.9781
0.9692
0.9686
0.976
0.983
0.9898
0.9948
0.9982
0.9987
0.999
0.9991
0.9995
0.9997
0.9999
0.9999
1
1
1
1
1
1
1
1
1
1
1
1
1
1
1
1
1
1
1
1
1
1
1
1
1
1
1
1
1
1
1
1
1
1
1
1
1
1
1
1
1
1
1
1
1
1
1
1
1
1
0.004523
0.00452
0.004688
0.001454
0.0005444
0.000595
0.0005203
0.001804
0.004273
0.007017
0.005233
0.008246
0.004182
0.002705
0.001029
0.0006888
0.0008213
0.001193
0.001461
0.002936
0.007367
0.01049
0.01305
0.0104
0.006938
0.006715
0.01102
0.009769
0.007178
0.005124
0.003064
0.003301
0.006482
0.01607
0.02889
0.03544
0.03419
0.02638
0.01737
0.01115
0.006151
0.003969
0.003753
0.005809
0.00931
0.01831
0.02991
0.03085
0.04543
0.07076
0.1502
0.3541
0.6698
0.8012
0.9011
0.9467
0.9771
0.9899
0.9973
0.9994
0.9999
1
1
0.9999
0.9999
0.9998
0.9998
0.9997
0.9998
0.9999
0.9999
0.9999
0.9994
0.9968
0.9894
0.9923
0.9912
0.9865
0.973
0.9352
0.8441
0.7956
0.7534
0.692
0.6153
0.5781
0.553
0.5373
0.5059
0.4566
0.4344
0.4784
0.5722
0.6538
0.7037
0.721
0.7719
0.8145
0.8695
0.9017
0.9408
0.965
0.9868
0.9916
0.9936
0.9923
0.995
0.997
0.9991
0.9996
0.9997
0.9998
0.9999
1
1
1
1
1
1
1
1
1
1
1
1
1
1
1
1
1
1
1
1
1
1
1
1
1
1
1
1
1
1
1
1
1
1
1
1
1
1
1
1
1
1
1
1
1
0.9999
0.9998
0.005154
0.004955
0.006022
0.001768
0.0008149
0.0003177
0.0001537
0.0005252
0.002687
0.008334
0.01423
0.02385
0.01146
0.007845
0.003846
0.002761
0.001844
0.002201
0.001899
0.003511
0.00602
0.007093
0.008175
0.006032
0.006575
0.008789
0.01702
0.01612
0.01262
0.007244
0.003769
0.002806
0.004028
0.01099
0.0268
0.04669
0.05238
0.03495
0.02165
0.01506
0.01003
0.008083
0.008513
0.01118
0.01652
0.02919
0.05091
0.07374
0.1357
0.2627
0.5188
0.7241
0.8693
0.9326
0.978
0.9922
0.9978
0.9992
0.9997
0.9999
1
1
1
0.9999
0.9998
0.9996
0.9996
0.9996
0.9996
0.9997
0.9995
0.9988
0.9962
0.9837
0.9556
0.9494
0.9322
0.8941
0.8301
0.7032
0.5346
0.4256
0.365
0.3057
0.2304
0.168
0.1298
0.1159
0.09656
0.08101
0.0687
0.06111
0.07078
0.09575
0.1335
0.1789
0.3135
0.4572
0.5873
0.6669
0.7649
0.8117
0.8889
0.916
0.9291
0.9397
0.9682
0.9824
0.9939
0.9964
0.9973
0.9982
0.9992
0.9998
0.9999
1
1
1
1
1
1
1
1
1
1
1
1
1
1
1
1
1
1
1
1
1
1
1
1
1
1
1
1
1
1
1
1
1
1
1
1
1
1
1
1
0.9999
0.9998
0.9994
0.9985
0.9955
0.00396
0.004241
0.005581
0.001792
0.001372
0.0003224
0.0001396
0.0003198
0.00196
0.00524
0.01417
0.02172
0.01297
0.009923
0.006587
0.005831
0.003977
0.003866
0.003854
0.004271
0.005343
0.005209
0.005018
0.003793
0.004404
0.005529
0.01126
0.0138
0.01473
0.01057
0.005026
0.002379
0.002142
0.004212
0.01217
0.02865
0.03961
0.02654
0.01724
0.01433
0.01474
0.01739
0.02392
0.03061
0.04353
0.07548
0.1393
0.2628
0.4825
0.6646
0.796
0.8853
0.9441
0.9724
0.9924
0.9979
0.9995
0.9998
0.9999
1
1
1
1
0.9999
0.9999
0.9998
0.9996
0.9995
0.9992
0.9986
0.997
0.9923
0.9809
0.9382
0.8647
0.8086
0.7198
0.573
0.3878
0.194
0.1281
0.09897
0.07716
0.05333
0.03052
0.01767
0.01243
0.01429
0.01469
0.01622
0.01298
0.01047
0.0123
0.01936
0.03024
0.04468
0.06464
0.08179
0.1178
0.1644
0.2217
0.3042
0.5521
0.6811
0.7482
0.7951
0.8605
0.9106
0.9564
0.9693
0.9735
0.9814
0.9912
0.9981
0.9996
0.9999
0.9999
1
1
1
1
1
1
1
1
1
1
1
1
1
1
1
1
1
1
1
1
1
1
1
1
1
1
1
1
1
1
1
1
1
1
1
0.9999
0.9997
0.9994
0.9986
0.9955
0.9828
0.954
0.8933
0.003221
0.004446
0.007379
0.002218
0.001899
0.0002833
0.0001286
0.0001969
0.001994
0.004042
0.01088
0.01146
0.008586
0.007551
0.005289
0.004807
0.004494
0.005347
0.006553
0.005
0.003379
0.002203
0.002354
0.002909
0.004387
0.004353
0.00725
0.009375
0.01003
0.007545
0.004123
0.001748
0.001391
0.002695
0.007576
0.0196
0.03106
0.02473
0.0176
0.01708
0.02294
0.03315
0.05131
0.06598
0.09438
0.1547
0.3073
0.5193
0.6888
0.8059
0.8834
0.9343
0.9669
0.9842
0.9961
0.9989
0.9997
0.9999
0.9999
0.9999
1
1
1
1
0.9999
0.9997
0.9992
0.9982
0.9954
0.9861
0.9642
0.921
0.8517
0.7254
0.5888
0.4225
0.2618
0.1437
0.07024
0.03508
0.01618
0.01065
0.007751
0.005435
0.00333
0.002551
0.001649
0.002392
0.003596
0.004689
0.003938
0.003405
0.004117
0.007307
0.01217
0.01893
0.02606
0.0316
0.04615
0.06988
0.09177
0.1102
0.1388
0.1796
0.2304
0.3357
0.5129
0.663
0.779
0.8315
0.8682
0.914
0.9581
0.9884
0.9974
0.9995
0.9999
0.9999
1
1
1
1
1
1
1
1
1
1
1
1
1
1
1
1
1
1
1
1
1
1
1
1
1
1
1
1
1
1
1
0.9999
0.9996
0.9988
0.9969
0.9918
0.9805
0.9513
0.8824
0.7389
0.5684
0.3627
0.003609
0.005937
0.01229
0.003312
0.002266
0.000281
0.0001694
0.0002585
0.001492
0.002481
0.005766
0.006471
0.007715
0.007254
0.003936
0.003529
0.004758
0.008674
0.01161
0.005895
0.001933
0.0009015
0.001121
0.001894
0.004073
0.004264
0.005
0.006555
0.007147
0.005264
0.003283
0.001539
0.001228
0.002357
0.005488
0.01277
0.01873
0.01586
0.01361
0.01628
0.02652
0.04214
0.06658
0.09128
0.1514
0.2952
0.5481
0.729
0.8478
0.9152
0.95
0.9679
0.9842