/*--------------------------------*- C++ -*----------------------------------*\
| =========                 |                                                 |
| \\      /  F ield         | OpenFOAM: The Open Source CFD Toolbox           |
|  \\    /   O peration     | Version:  5.x                                   |
|   \\  /    A nd           | Web:      www.OpenFOAM.org                      |
|    \\/     M anipulation  |                                                 |
\*---------------------------------------------------------------------------*/
FoamFile
{
    version     2.0;
    format      ascii;
    class       volScalarField;
    location    "100";
    object      gamma;
}
// * * * * * * * * * * * * * * * * * * * * * * * * * * * * * * * * * * * * * //

dimensions      [0 0 0 0 0 0 0];

internalField   nonuniform List<scalar> 
80000
(
1
1
1
1
1
1
1
1
1
1
1
1
1
1
1
1
1
1
1
1
1
1
1
1
1
1
1
1
1
1
1
1
1
1
1
1
1
1
1
1
1
1
1
1
1
1
1
1
1
1
1
1
1
1
1
1
1
1
1
1
1
1
1
1
1
1
1
1
1
1
1
1
1
1
1
1
1
1
1
1
1
1
1
1
1
1
1
1
1
1
1
1
1
1
1
1
1
1
1
1
1
1
1
1
1
1
1
1
1
1
1
1
1
1
1
1
1
1
1
1
1
1
1
1
1
1
1
1
1
1
1
1
1
1
1
1
1
1
1
1
1
1
1
1
1
1
1
1
1
1
1
1
1
1
1
1
1
1
1
1
1
1
1
1
1
1
1
1
1
1
1
1
1
1
1
1
1
1
1
1
1
1
1
1
1
1
1
1
1
1
1
1
1
1
1
1
1
1
1
1
1
1
1
1
1
1
1
1
1
1
1
1
1
1
1
1
1
1
1
1
1
1
1
1
1
1
1
1
1
1
1
1
1
1
1
1
1
1
1
1
1
1
1
1
1
1
1
1
1
1
1
1
1
1
1
1
1
1
1
0.99998
0.99857
0.78532
0.00096012
3.6216e-06
1.2293e-07
1.6264e-08
9.9409e-10
5.976e-11
7.1379e-12
2.6538e-12
5.582e-12
4.6623e-11
5.5822e-10
4.7359e-09
2.2995e-08
4.03e-08
4.0789e-08
4.2094e-08
8.3185e-08
2.28e-07
8.4312e-07
1.8279e-06
3.1563e-06
3.8418e-06
2.1129e-06
8.489e-07
2.3773e-07
1.0907e-07
9.1515e-08
1.5524e-07
1.7554e-07
1.7109e-07
1.621e-07
1.5413e-07
1.4694e-07
1.4233e-07
1.402e-07
1.3896e-07
1.3871e-07
1.3686e-07
1.3394e-07
1.3012e-07
1.2607e-07
1.2289e-07
1.2064e-07
1.1904e-07
1.184e-07
1.1735e-07
1.1384e-07
1.0754e-07
9.9812e-08
9.7481e-08
1.1562e-07
1.9996e-07
3.2501e-07
1.391e-07
3.4734e-08
5.6931e-09
1.816e-09
1.3061e-09
2.3324e-09
2.636e-09
2.5055e-09
2.3398e-09
2.2385e-09
2.1807e-09
2.1299e-09
2.0775e-09
2.0248e-09
1.9736e-09
1.9244e-09
1.877e-09
1.8312e-09
1.7869e-09
1.7441e-09
1.7026e-09
1.6625e-09
1.6236e-09
1.5859e-09
1.5494e-09
1.5141e-09
1.4799e-09
1.4469e-09
1.415e-09
1.3841e-09
1.3544e-09
1.3257e-09
1.2982e-09
1.2717e-09
1.2463e-09
1.2221e-09
1.1989e-09
1.1768e-09
1.1557e-09
1.1358e-09
1.117e-09
1.0992e-09
1.0825e-09
1.0668e-09
1.0522e-09
1.0387e-09
1.0261e-09
1.0146e-09
1.004e-09
9.9432e-10
9.856e-10
9.7775e-10
9.7075e-10
9.6455e-10
9.5913e-10
9.5442e-10
9.5039e-10
9.4699e-10
9.4416e-10
9.4187e-10
9.4004e-10
9.3863e-10
9.376e-10
9.3687e-10
9.3641e-10
9.3617e-10
9.3609e-10
9.3613e-10
9.3625e-10
9.3641e-10
9.3661e-10
9.3694e-10
9.3746e-10
9.3768e-10
9.3575e-10
9.2989e-10
9.2835e-10
9.5098e-10
1.0152e-09
1.0447e-09
7.5819e-10
5.4823e-10
6.885e-10
9.2431e-10
1.7418e-09
1
1
1
1
1
1
1
1
1
1
1
1
1
1
1
1
1
1
1
1
1
1
1
1
1
1
1
1
1
1
1
1
1
1
1
1
1
1
1
1
1
1
1
1
1
1
1
1
1
1
1
1
1
1
1
1
1
1
1
1
1
1
1
1
1
1
1
1
1
1
1
1
1
1
1
1
1
1
1
1
1
1
1
1
1
1
1
1
1
1
1
1
1
1
1
1
1
1
1
1
1
1
1
1
1
1
1
1
1
1
1
1
1
1
1
1
1
1
1
1
1
1
1
1
1
1
1
1
1
1
1
1
1
1
1
1
1
1
1
1
1
1
1
1
1
1
1
1
1
1
1
1
1
1
1
1
1
1
1
1
1
1
1
1
1
1
1
1
1
1
1
1
1
1
1
1
1
1
1
1
1
1
1
1
1
1
1
1
1
1
1
1
1
1
1
1
1
1
1
1
1
1
1
1
1
1
1
1
1
1
1
1
1
1
1
1
1
1
1
1
1
1
1
1
1
1
1
1
1
1
1
1
1
1
1
1
1
1
1
1
1
1
1
1
1
1
1
1
1
1
1
1
1
1
1
1
1
1
1
0.99999
0.9998
0.99254
0.79342
0.049611
0.0031125
0.00033979
9.8284e-06
1.511e-07
2.7917e-09
1.2593e-10
2.9156e-11
3.5567e-11
1.0478e-10
3.542e-10
1.1642e-09
2.9068e-09
7.7558e-09
2.3676e-08
1.0064e-07
4.5056e-07
1.1346e-06
1.9603e-06
2.3768e-06
1.9123e-06
8.2904e-07
2.9716e-07
9.696e-08
6.0975e-08
6.4003e-08
1.0099e-07
1.1128e-07
1.0748e-07
1.0107e-07
9.6006e-08
9.2295e-08
9.0187e-08
8.9196e-08
8.8685e-08
8.7366e-08
8.5482e-08
8.3269e-08
8.0776e-08
7.835e-08
7.6641e-08
7.5366e-08
7.4602e-08
7.375e-08
7.2481e-08
6.9586e-08
6.5434e-08
6.1597e-08
6.38e-08
8.4349e-08
1.1338e-07
1.0484e-07
3.399e-08
7.8215e-09
1.6463e-09
8.2092e-10
7.9666e-10
1.3149e-09
1.4383e-09
1.3578e-09
1.2695e-09
1.2162e-09
1.1848e-09
1.1567e-09
1.1279e-09
1.0992e-09
1.0713e-09
1.0445e-09
1.0188e-09
9.9398e-10
9.6998e-10
9.4677e-10
9.243e-10
9.0254e-10
8.8147e-10
8.6106e-10
8.4129e-10
8.2214e-10
8.0361e-10
7.8568e-10
7.6835e-10
7.5161e-10
7.3545e-10
7.1987e-10
7.0488e-10
6.9047e-10
6.7665e-10
6.634e-10
6.5074e-10
6.3866e-10
6.2716e-10
6.1624e-10
6.059e-10
5.9614e-10
5.8695e-10
5.7832e-10
5.7026e-10
5.6275e-10
5.5578e-10
5.4934e-10
5.4343e-10
5.3802e-10
5.331e-10
5.2865e-10
5.2466e-10
5.211e-10
5.1795e-10
5.1519e-10
5.128e-10
5.1075e-10
5.0901e-10
5.0755e-10
5.0636e-10
5.054e-10
5.0465e-10
5.0407e-10
5.0365e-10
5.0336e-10
5.0317e-10
5.0306e-10
5.0301e-10
5.03e-10
5.0303e-10
5.0315e-10
5.0339e-10
5.0348e-10
5.0239e-10
4.9915e-10
4.9836e-10
5.1103e-10
5.4667e-10
5.6265e-10
4.034e-10
2.8933e-10
3.6927e-10
4.9499e-10
9.2431e-10
1
1
1
1
1
1
1
1
1
1
1
1
1
1
1
1
1
1
1
1
1
1
1
1
1
1
1
1
1
1
1
1
1
1
1
1
1
1
1
1
1
1
1
1
1
1
1
1
1
1
1
1
1
1
1
1
1
1
1
1
1
1
1
1
1
1
1
1
1
1
1
1
1
1
1
1
1
1
1
1
1
1
1
1
1
1
1
1
1
1
1
1
1
1
1
1
1
1
1
1
1
1
1
1
1
1
1
1
1
1
1
1
1
1
1
1
1
1
1
1
1
1
1
1
1
1
1
1
1
1
1
1
1
1
1
1
1
1
1
1
1
1
1
1
1
1
1
1
1
1
1
1
1
1
1
1
1
1
1
1
1
1
1
1
1
1
1
1
1
1
1
1
1
1
1
1
1
1
1
1
1
1
1
1
1
1
1
1
1
1
1
1
1
1
1
1
1
1
1
1
1
1
1
1
1
1
1
1
1
1
1
1
1
1
1
1
1
1
1
1
1
1
1
1
1
1
1
1
1
1
1
1
1
1
1
1
1
1
1
1
1
1
1
1
1
1
1
1
1
1
1
1
1
1
1
1
1
1
1
1
0.99999
0.9999
0.99898
0.99317
0.96996
0.88764
0.20843
0.0024481
1.7417e-05
1.309e-07
3.8643e-09
4.8848e-10
1.6139e-10
8.966e-11
1.1794e-10
2.76e-10
1.3767e-09
1.0392e-08
9.9124e-08
5.2479e-07
1.4424e-06
2.0665e-06
1.7053e-06
9.2558e-07
3.3047e-07
1.0508e-07
5.672e-08
4.9209e-08
6.0455e-08
8.5514e-08
9.0684e-08
8.6198e-08
8.0929e-08
7.7198e-08
7.4858e-08
7.3624e-08
7.305e-08
7.1906e-08
7.0312e-08
6.8435e-08
6.643e-08
6.4537e-08
6.2813e-08
6.1625e-08
6.0654e-08
5.9954e-08
5.8976e-08
5.7455e-08
5.4591e-08
5.1239e-08
4.9817e-08
5.6426e-08
8.6309e-08
8.7483e-08
4.9594e-08
1.2263e-08
2.2337e-09
7.0429e-10
5.675e-10
6.962e-10
1.0221e-09
1.0695e-09
1.0033e-09
9.4205e-10
9.0531e-10
8.8232e-10
8.6128e-10
8.3982e-10
8.1853e-10
7.9797e-10
7.7826e-10
7.5932e-10
7.4106e-10
7.2342e-10
7.0636e-10
6.8984e-10
6.7386e-10
6.5837e-10
6.4336e-10
6.2882e-10
6.1473e-10
6.0109e-10
5.8788e-10
5.7509e-10
5.6274e-10
5.508e-10
5.3929e-10
5.2819e-10
5.1751e-10
5.0726e-10
4.9742e-10
4.88e-10
4.79e-10
4.7042e-10
4.6226e-10
4.5452e-10
4.4719e-10
4.4028e-10
4.3378e-10
4.2769e-10
4.22e-10
4.167e-10
4.1179e-10
4.0725e-10
4.0309e-10
3.9928e-10
3.9581e-10
3.9268e-10
3.8986e-10
3.8735e-10
3.8512e-10
3.8315e-10
3.8144e-10
3.7996e-10
3.787e-10
3.7763e-10
3.7673e-10
3.76e-10
3.7541e-10
3.7494e-10
3.7457e-10
3.7429e-10
3.7409e-10
3.7395e-10
3.7384e-10
3.7379e-10
3.7382e-10
3.7396e-10
3.7399e-10
3.7315e-10
3.707e-10
3.7013e-10
3.7972e-10
4.0663e-10
4.1868e-10
2.9865e-10
2.1281e-10
2.7368e-10
3.6927e-10
6.8851e-10
1
1
1
1
1
1
1
1
1
1
1
1
1
1
1
1
1
1
1
1
1
1
1
1
1
1
1
1
1
1
1
1
1
1
1
1
1
1
1
1
1
1
1
1
1
1
1
1
1
1
1
1
1
1
1
1
1
1
1
1
1
1
1
1
1
1
1
1
1
1
1
1
1
1
1
1
1
1
1
1
1
1
1
1
1
1
1
1
1
1
1
1
1
1
1
1
1
1
1
1
1
1
1
1
1
1
1
1
1
1
1
1
1
1
1
1
1
1
1
1
1
1
1
1
1
1
1
1
1
1
1
1
1
1
1
1
1
1
1
1
1
1
1
1
1
1
1
1
1
1
1
1
1
1
1
1
1
1
1
1
1
1
1
1
1
1
1
1
1
1
1
1
1
1
1
1
1
1
1
1
1
1
1
1
1
1
1
1
1
1
1
1
1
1
1
1
1
1
1
1
1
1
1
1
1
1
1
1
1
1
1
1
1
1
1
1
1
1
1
1
1
1
1
1
1
1
1
1
1
1
1
1
1
1
1
1
1
1
1
1
1
1
1
1
1
1
1
1
1
1
1
1
1
1
1
1
1
1
1
1
1
1
1
1
0.99999
0.99997
0.99977
0.99547
0.82657
0.0041727
1.1111e-05
8.5682e-08
1.972e-09
1.2761e-10
3.5811e-11
3.4309e-11
1.5432e-10
2.0499e-09
2.9149e-08
2.7209e-07
1.0079e-06
1.2889e-06
7.8924e-07
3.0904e-07
9.5133e-08
4.8729e-08
4.023e-08
4.7189e-08
6.4014e-08
7.7287e-08
7.6954e-08
7.1822e-08
6.7446e-08
6.4705e-08
6.3354e-08
6.2877e-08
6.2129e-08
6.0666e-08
5.8901e-08
5.6972e-08
5.5236e-08
5.3861e-08
5.2652e-08
5.1829e-08
5.1131e-08
5.0232e-08
4.9122e-08
4.7299e-08
4.4353e-08
4.1684e-08
4.2881e-08
5.5866e-08
7.6534e-08
4.6725e-08
1.4248e-08
2.4082e-09
6.3805e-10
3.4523e-10
4.6095e-10
6.8028e-10
8.4364e-10
8.3138e-10
7.7538e-10
7.3338e-10
7.0811e-10
6.9058e-10
6.7393e-10
6.5708e-10
6.4052e-10
6.2459e-10
6.0934e-10
5.947e-10
5.806e-10
5.6699e-10
5.5384e-10
5.4112e-10
5.288e-10
5.1687e-10
5.0531e-10
4.941e-10
4.8323e-10
4.727e-10
4.625e-10
4.5262e-10
4.4306e-10
4.3381e-10
4.2488e-10
4.1627e-10
4.0796e-10
3.9998e-10
3.923e-10
3.8494e-10
3.7789e-10
3.7116e-10
3.6474e-10
3.5864e-10
3.5285e-10
3.4737e-10
3.422e-10
3.3733e-10
3.3277e-10
3.285e-10
3.2453e-10
3.2084e-10
3.1743e-10
3.1429e-10
3.1141e-10
3.0879e-10
3.064e-10
3.0424e-10
3.023e-10
3.0057e-10
2.9903e-10
2.9767e-10
2.9648e-10
2.9544e-10
2.9454e-10
2.9378e-10
2.9313e-10
2.9259e-10
2.9214e-10
2.9177e-10
2.9147e-10
2.9124e-10
2.9105e-10
2.9092e-10
2.9087e-10
2.9092e-10
2.9091e-10
2.9022e-10
2.8828e-10
2.8783e-10
2.9544e-10
3.1668e-10
3.2611e-10
2.3141e-10
1.641e-10
2.1281e-10
2.8933e-10
5.4823e-10
1
1
1
1
1
1
1
1
1
1
1
1
1
1
1
1
1
1
1
1
1
1
1
1
1
1
1
1
1
1
1
1
1
1
1
1
1
1
1
1
1
1
1
1
1
1
1
1
1
1
1
1
1
1
1
1
1
1
1
1
1
1
1
1
1
1
1
1
1
1
1
1
1
1
1
1
1
1
1
1
1
1
1
1
1
1
1
1
1
1
1
1
1
1
1
1
1
1
1
1
1
1
1
1
1
1
1
1
1
1
1
1
1
1
1
1
1
1
1
1
1
1
1
1
1
1
1
1
1
1
1
1
1
1
1
1
1
1
1
1
1
1
1
1
1
1
1
1
1
1
1
1
1
1
1
1
1
1
1
1
1
1
1
1
1
1
1
1
1
1
1
1
1
1
1
1
1
1
1
1
1
1
1
1
1
1
1
1
1
1
1
1
1
1
1
1
1
1
1
1
1
1
1
1
1
1
1
1
1
1
1
1
1
1
1
1
1
1
1
1
1
1
1
1
1
1
1
1
1
1
1
1
1
1
1
1
1
1
1
1
1
1
1
1
1
1
1
1
1
1
1
1
1
1
1
1
1
1
1
1
1
1
1
1
1
1
1
1
0.99995
0.99707
0.83783
0.0052866
1.196e-05
6.3647e-08
1.3208e-09
1.156e-10
1.2574e-10
5.6144e-10
4.862e-09
3.3955e-08
1.262e-07
1.9551e-07
1.6734e-07
7.9075e-08
4.9389e-08
4.5353e-08
5.6446e-08
8.0976e-08
1.0601e-07
1.095e-07
1.0279e-07
9.4381e-08
8.8827e-08
8.5781e-08
8.4714e-08
8.3677e-08
8.227e-08
7.9643e-08
7.6947e-08
7.457e-08
7.2778e-08
7.1301e-08
7.0013e-08
6.8948e-08
6.7587e-08
6.613e-08
6.4464e-08
6.159e-08
5.7367e-08
5.4397e-08
6.0024e-08
9.0852e-08
9.2102e-08
3.4e-08
6.7245e-09
1.1156e-09
3.9372e-10
4.034e-10
7.817e-10
1.1683e-09
1.2278e-09
1.1473e-09
1.0686e-09
1.0199e-09
9.8963e-10
9.6577e-10
9.4237e-10
9.1896e-10
8.9615e-10
8.7426e-10
8.533e-10
8.3317e-10
8.1378e-10
7.9508e-10
7.7702e-10
7.5956e-10
7.4266e-10
7.263e-10
7.1044e-10
6.9506e-10
6.8015e-10
6.6569e-10
6.5168e-10
6.381e-10
6.2494e-10
6.1221e-10
5.999e-10
5.8801e-10
5.7653e-10
5.6548e-10
5.5483e-10
5.4461e-10
5.3481e-10
5.2542e-10
5.1646e-10
5.0791e-10
4.9978e-10
4.9207e-10
4.8476e-10
4.7787e-10
4.7138e-10
4.6529e-10
4.5959e-10
4.5427e-10
4.4932e-10
4.4474e-10
4.405e-10
4.3661e-10
4.3304e-10
4.2978e-10
4.2682e-10
4.2413e-10
4.2172e-10
4.1955e-10
4.1762e-10
4.159e-10
4.1439e-10
4.1307e-10
4.1191e-10
4.1091e-10
4.1006e-10
4.0934e-10
4.0873e-10
4.0822e-10
4.0781e-10
4.0749e-10
4.0731e-10
4.0729e-10
4.072e-10
4.062e-10
4.0348e-10
4.0284e-10
4.1334e-10
4.4263e-10
4.5567e-10
3.2501e-10
2.3141e-10
2.9865e-10
4.034e-10
7.5819e-10
1
1
1
1
1
1
1
1
1
1
1
1
1
1
1
1
1
1
1
1
1
1
1
1
1
1
1
1
1
1
1
1
1
1
1
1
1
1
1
1
1
1
1
1
1
1
1
1
1
1
1
1
1
1
1
1
1
1
1
1
1
1
1
1
1
1
1
1
1
1
1
1
1
1
1
1
1
1
1
1
1
1
1
1
1
1
1
1
1
1
1
1
1
1
1
1
1
1
1
1
1
1
1
1
1
1
1
1
1
1
1
1
1
1
1
1
1
1
1
1
1
1
1
1
1
1
1
1
1
1
1
1
1
1
1
1
1
1
1
1
1
1
1
1
1
1
1
1
1
1
1
1
1
1
1
1
1
1
1
1
1
1
1
1
1
1
1
1
1
1
1
1
1
1
1
1
1
1
1
1
1
1
1
1
1
1
1
1
1
1
1
1
1
1
1
1
1
1
1
1
1
1
1
1
1
1
1
1
1
1
1
1
1
1
1
1
1
1
1
1
1
1
1
1
1
1
1
1
1
1
1
1
1
1
1
1
1
1
1
1
1
1
1
1
1
1
1
1
1
1
1
1
1
1
1
1
1
1
1
1
1
1
1
1
1
1
1
1
1
1
0.99995
0.99771
0.83297
0.003175
6.3311e-06
3.6937e-08
2.3959e-09
8.4685e-10
1.226e-09
2.2345e-09
4.4183e-09
6.907e-09
9.5311e-09
1.3528e-08
2.5434e-08
5.4712e-08
1.0279e-07
1.5171e-07
1.6229e-07
1.5285e-07
1.3894e-07
1.2654e-07
1.1941e-07
1.1563e-07
1.1369e-07
1.1155e-07
1.0905e-07
1.048e-07
1.01e-07
9.838e-08
9.6412e-08
9.4846e-08
9.3586e-08
9.1933e-08
8.9746e-08
8.767e-08
8.5384e-08
8.12e-08
7.5352e-08
7.2352e-08
8.4904e-08
1.4541e-07
9.6808e-08
2.374e-08
3.5378e-09
8.7168e-10
4.4116e-10
8.1986e-10
1.6368e-09
1.9129e-09
1.791e-09
1.6178e-09
1.507e-09
1.4452e-09
1.404e-09
1.3685e-09
1.334e-09
1.3004e-09
1.2681e-09
1.2373e-09
1.2076e-09
1.1791e-09
1.1517e-09
1.1252e-09
1.0996e-09
1.0749e-09
1.051e-09
1.0279e-09
1.0055e-09
9.8379e-10
9.6277e-10
9.4239e-10
9.2264e-10
9.035e-10
8.8497e-10
8.6702e-10
8.4966e-10
8.3289e-10
8.1669e-10
8.0107e-10
7.8603e-10
7.7157e-10
7.5768e-10
7.4437e-10
7.3164e-10
7.1948e-10
7.0789e-10
6.9687e-10
6.8642e-10
6.7653e-10
6.6719e-10
6.5839e-10
6.5013e-10
6.4239e-10
6.3516e-10
6.2843e-10
6.2218e-10
6.164e-10
6.1106e-10
6.0615e-10
6.0166e-10
5.9755e-10
5.9381e-10
5.9042e-10
5.8736e-10
5.846e-10
5.8214e-10
5.7995e-10
5.7801e-10
5.763e-10
5.7481e-10
5.7352e-10
5.7241e-10
5.7147e-10
5.7068e-10
5.7005e-10
5.6963e-10
5.6946e-10
5.6922e-10
5.6774e-10
5.6392e-10
5.6298e-10
5.7738e-10
6.1767e-10
6.3561e-10
4.5567e-10
3.2611e-10
4.1868e-10
5.6265e-10
1.0447e-09
1
1
1
1
1
1
1
1
1
1
1
1
1
1
1
1
1
1
1
1
1
1
1
1
1
1
1
1
1
1
1
1
1
1
1
1
1
1
1
1
1
1
1
1
1
1
1
1
1
1
1
1
1
1
1
1
1
1
1
1
1
1
1
1
1
1
1
1
1
1
1
1
1
1
1
1
1
1
1
1
1
1
1
1
1
1
1
1
1
1
1
1
1
1
1
1
1
1
1
1
1
1
1
1
1
1
1
1
1
1
1
1
1
1
1
1
1
1
1
1
1
1
1
1
1
1
1
1
1
1
1
1
1
1
1
1
1
1
1
1
1
1
1
1
1
1
1
1
1
1
1
1
1
1
1
1
1
1
1
1
1
1
1
1
1
1
1
1
1
1
1
1
1
1
1
1
1
1
1
1
1
1
1
1
1
1
1
1
1
1
1
1
1
1
1
1
1
1
1
1
1
1
1
1
1
1
1
1
1
1
1
1
1
1
1
1
1
1
1
1
1
1
1
1
1
1
1
1
1
1
1
1
1
1
1
1
1
1
1
1
1
1
1
1
1
1
1
1
1
1
1
1
1
1
1
1
1
1
1
1
1
1
1
1
1
1
1
1
1
1
1
1
0.99992
0.99416
0.58798
0.00069561
3.3249e-06
4.5202e-08
2.8892e-09
4.2424e-10
1.9662e-10
1.3574e-10
2.9307e-10
9.8148e-10
4.8647e-09
2.4709e-08
7.37e-08
1.2711e-07
1.5097e-07
1.5204e-07
1.4297e-07
1.324e-07
1.2544e-07
1.2026e-07
1.1679e-07
1.1358e-07
1.1047e-07
1.0591e-07
1.0225e-07
9.9687e-08
9.7823e-08
9.6543e-08
9.4896e-08
9.2873e-08
9.0443e-08
8.8434e-08
8.6355e-08
8.2151e-08
7.618e-08
7.3926e-08
8.9813e-08
1.6357e-07
7.0366e-08
1.5101e-08
2.2066e-09
6.4664e-10
4.0639e-10
1.1211e-09
1.9069e-09
2.0374e-09
1.8468e-09
1.6601e-09
1.5479e-09
1.4805e-09
1.4301e-09
1.3861e-09
1.346e-09
1.3093e-09
1.2754e-09
1.2434e-09
1.2128e-09
1.1834e-09
1.155e-09
1.1276e-09
1.1012e-09
1.0756e-09
1.051e-09
1.0272e-09
1.0041e-09
9.8184e-10
9.6026e-10
9.3937e-10
9.1915e-10
8.9957e-10
8.8063e-10
8.623e-10
8.4458e-10
8.2747e-10
8.1096e-10
7.9504e-10
7.7971e-10
7.6496e-10
7.5081e-10
7.3724e-10
7.2425e-10
7.1184e-10
7e-10
6.8874e-10
6.7804e-10
6.6789e-10
6.583e-10
6.4925e-10
6.4074e-10
6.3274e-10
6.2525e-10
6.1825e-10
6.1173e-10
6.0566e-10
6.0005e-10
5.9485e-10
5.9007e-10
5.8567e-10
5.8164e-10
5.7796e-10
5.7461e-10
5.7158e-10
5.6884e-10
5.6638e-10
5.6417e-10
5.6221e-10
5.6048e-10
5.5896e-10
5.5763e-10
5.5649e-10
5.5551e-10
5.547e-10
5.5413e-10
5.5381e-10
5.5346e-10
5.5191e-10
5.4809e-10
5.471e-10
5.6104e-10
6.002e-10
6.1767e-10
4.4263e-10
3.1668e-10
4.0663e-10
5.4667e-10
1.0152e-09
1
1
1
1
1
1
1
1
1
1
1
1
1
1
1
1
1
1
1
1
1
1
1
1
1
1
1
1
1
1
1
1
1
1
1
1
1
1
1
1
1
1
1
1
1
1
1
1
1
1
1
1
1
1
1
1
1
1
1
1
1
1
1
1
1
1
1
1
1
1
1
1
1
1
1
1
1
1
1
1
1
1
1
1
1
1
1
1
1
1
1
1
1
1
1
1
1
1
1
1
1
1
1
1
1
1
1
1
1
1
1
1
1
1
1
1
1
1
1
1
1
1
1
1
1
1
1
1
1
1
1
1
1
1
1
1
1
1
1
1
1
1
1
1
1
1
1
1
1
1
1
1
1
1
1
1
1
1
1
1
1
1
1
1
1
1
1
1
1
1
1
1
1
1
1
1
1
1
1
1
1
1
1
1
1
1
1
1
1
1
1
1
1
1
1
1
1
1
1
1
1
1
1
1
1
1
1
1
1
1
1
1
1
1
1
1
1
1
1
1
1
1
1
1
1
1
1
1
1
1
1
1
1
1
1
1
1
1
1
1
1
1
1
1
1
1
1
1
1
1
1
1
1
1
1
1
1
1
1
1
1
1
1
1
1
1
1
1
1
1
1
1
1
0.99999
0.99965
0.97408
0.092463
0.00015011
6.3296e-07
5.1947e-09
1.9641e-10
2.9589e-11
2.7669e-11
8.2361e-11
4.5887e-10
3.1615e-09
1.2954e-08
3.8656e-08
7.5515e-08
1.0929e-07
1.2658e-07
1.302e-07
1.2768e-07
1.2277e-07
1.1816e-07
1.1367e-07
1.0961e-07
1.0506e-07
1.0151e-07
9.8961e-08
9.7088e-08
9.5455e-08
9.3391e-08
9.1174e-08
8.8843e-08
8.7178e-08
8.5488e-08
8.1472e-08
7.5729e-08
7.3804e-08
8.9334e-08
1.6062e-07
6.7472e-08
1.3917e-08
1.9241e-09
5.3437e-10
3.2486e-10
8.9761e-10
1.5968e-09
1.8208e-09
1.7527e-09
1.6378e-09
1.5519e-09
1.4832e-09
1.4211e-09
1.3642e-09
1.3145e-09
1.2719e-09
1.2349e-09
1.2017e-09
1.1709e-09
1.1417e-09
1.1137e-09
1.0866e-09
1.0604e-09
1.0352e-09
1.0108e-09
9.872e-10
9.6444e-10
9.4244e-10
9.2118e-10
9.0063e-10
8.8075e-10
8.6152e-10
8.4294e-10
8.2498e-10
8.0762e-10
7.9087e-10
7.7471e-10
7.5914e-10
7.4415e-10
7.2973e-10
7.1588e-10
7.026e-10
6.8989e-10
6.7773e-10
6.6613e-10
6.5508e-10
6.4457e-10
6.3459e-10
6.2514e-10
6.1621e-10
6.0778e-10
5.9985e-10
5.924e-10
5.8541e-10
5.7888e-10
5.7279e-10
5.6712e-10
5.6185e-10
5.5698e-10
5.5247e-10
5.4832e-10
5.445e-10
5.41e-10
5.3781e-10
5.3491e-10
5.3227e-10
5.2989e-10
5.2776e-10
5.2585e-10
5.2416e-10
5.2267e-10
5.2137e-10
5.2024e-10
5.1929e-10
5.1858e-10
5.1813e-10
5.1766e-10
5.1609e-10
5.1241e-10
5.1138e-10
5.2438e-10
5.6104e-10
5.7738e-10
4.1334e-10
2.9544e-10
3.7972e-10
5.1103e-10
9.5099e-10
1
1
1
1
1
1
1
1
1
1
1
1
1
1
1
1
1
1
1
1
1
1
1
1
1
1
1
1
1
1
1
1
1
1
1
1
1
1
1
1
1
1
1
1
1
1
1
1
1
1
1
1
1
1
1
1
1
1
1
1
1
1
1
1
1
1
1
1
1
1
1
1
1
1
1
1
1
1
1
1
1
1
1
1
1
1
1
1
1
1
1
1
1
1
1
1
1
1
1
1
1
1
1
1
1
1
1
1
1
1
1
1
1
1
1
1
1
1
1
1
1
1
1
1
1
1
1
1
1
1
1
1
1
1
1
1
1
1
1
1
1
1
1
1
1
1
1
1
1
1
1
1
1
1
1
1
1
1
1
1
1
1
1
1
1
1
1
1
1
1
1
1
1
1
1
1
1
1
1
1
1
1
1
1
1
1
1
1
1
1
1
1
1
1
1
1
1
1
1
1
1
1
1
1
1
1
1
1
1
1
1
1
1
1
1
1
1
1
1
1
1
1
1
1
1
1
1
1
1
1
1
1
1
1
1
1
1
1
1
1
1
1
1
1
1
1
1
1
1
1
1
1
1
1
1
1
1
1
1
1
1
1
1
1
1
1
1
1
1
1
1
1
1
1
1
0.99996
0.99884
0.94481
0.022065
2.2594e-05
4.2547e-08
5.0305e-10
5.4567e-11
3.8087e-11
6.2297e-11
2.0548e-10
7.4564e-10
3.3631e-09
1.2514e-08
3.5377e-08
7.0634e-08
1.0135e-07
1.1899e-07
1.2389e-07
1.2244e-07
1.1824e-07
1.1384e-07
1.0909e-07
1.0528e-07
1.0228e-07
1.0004e-07
9.7552e-08
9.512e-08
9.2809e-08
9.0771e-08
8.9452e-08
8.7886e-08
8.4071e-08
7.8547e-08
7.6303e-08
8.9012e-08
1.4713e-07
9.1463e-08
2.7733e-08
4.2291e-09
9.3052e-10
3.7766e-10
5.5386e-10
8.8362e-10
1.2676e-09
1.4636e-09
1.5422e-09
1.5622e-09
1.5371e-09
1.4832e-09
1.4174e-09
1.3542e-09
1.2987e-09
1.2519e-09
1.2122e-09
1.1776e-09
1.1463e-09
1.1171e-09
1.0894e-09
1.0628e-09
1.037e-09
1.0121e-09
9.8806e-10
9.648e-10
9.4234e-10
9.2065e-10
8.9969e-10
8.7945e-10
8.5989e-10
8.41e-10
8.2275e-10
8.0514e-10
7.8814e-10
7.7175e-10
7.5596e-10
7.4075e-10
7.2613e-10
7.1208e-10
6.9861e-10
6.857e-10
6.7334e-10
6.6154e-10
6.5028e-10
6.3956e-10
6.2937e-10
6.197e-10
6.1054e-10
6.0188e-10
5.937e-10
5.86e-10
5.7876e-10
5.7197e-10
5.656e-10
5.5965e-10
5.541e-10
5.4894e-10
5.4414e-10
5.397e-10
5.3559e-10
5.318e-10
5.2831e-10
5.2512e-10
5.2221e-10
5.1956e-10
5.1716e-10
5.15e-10
5.1306e-10
5.1134e-10
5.0982e-10
5.0849e-10
5.0736e-10
5.0647e-10
5.0586e-10
5.0525e-10
5.0358e-10
4.9987e-10
4.9878e-10
5.1139e-10
5.471e-10
5.6298e-10
4.0284e-10
2.8783e-10
3.7013e-10
4.9837e-10
9.2836e-10
1
1
1
1
1
1
1
1
1
1
1
1
1
1
1
1
1
1
1
1
1
1
1
1
1
1
1
1
1
1
1
1
1
1
1
1
1
1
1
1
1
1
1
1
1
1
1
1
1
1
1
1
1
1
1
1
1
1
1
1
1
1
1
1
1
1
1
1
1
1
1
1
1
1
1
1
1
1
1
1
1
1
1
1
1
1
1
1
1
1
1
1
1
1
1
1
1
1
1
1
1
1
1
1
1
1
1
1
1
1
1
1
1
1
1
1
1
1
1
1
1
1
1
1
1
1
1
1
1
1
1
1
1
1
1
1
1
1
1
1
1
1
1
1
1
1
1
1
1
1
1
1
1
1
1
1
1
1
1
1
1
1
1
1
1
1
1
1
1
1
1
1
1
1
1
1
1
1
1
1
1
1
1
1
1
1
1
1
1
1
1
1
1
1
1
1
1
1
1
1
1
1
1
1
1
1
1
1
1
1
1
1
1
1
1
1
1
1
1
1
1
1
1
1
1
1
1
1
1
1
1
1
1
1
1
1
1
1
1
1
1
1
1
1
1
1
1
1
1
1
1
1
1
1
1
1
1
1
1
1
1
1
1
1
1
1
1
1
1
1
1
1
1
1
1
1
1
0.99996
0.99867
0.89425
0.0027158
3.5341e-06
2.2124e-08
9.8856e-10
1.0186e-10
4.8054e-11
5.4503e-11
1.5795e-10
6.8488e-10
3.4357e-09
1.3725e-08
3.7026e-08
7.1446e-08
1.0005e-07
1.162e-07
1.2027e-07
1.1882e-07
1.1514e-07
1.1151e-07
1.0811e-07
1.0496e-07
1.0164e-07
9.8886e-08
9.6432e-08
9.4573e-08
9.3317e-08
9.1851e-08
8.8548e-08
8.3559e-08
8.0691e-08
8.8859e-08
1.2847e-07
1.1692e-07
5.9693e-08
1.5882e-08
3.4938e-09
1.0088e-09
6.5905e-10
6.1822e-10
7.3889e-10
8.4772e-10
1.1401e-09
1.3666e-09
1.4947e-09
1.5314e-09
1.5042e-09
1.4476e-09
1.3826e-09
1.3217e-09
1.2685e-09
1.2237e-09
1.1856e-09
1.1524e-09
1.1223e-09
1.0942e-09
1.0674e-09
1.0415e-09
1.0164e-09
9.9209e-10
9.6859e-10
9.4588e-10
9.2396e-10
9.0279e-10
8.8235e-10
8.6262e-10
8.4359e-10
8.2522e-10
8.0751e-10
7.9043e-10
7.7398e-10
7.5814e-10
7.4291e-10
7.2827e-10
7.1422e-10
7.0075e-10
6.8785e-10
6.7552e-10
6.6374e-10
6.5251e-10
6.4182e-10
6.3165e-10
6.22e-10
6.1286e-10
6.0421e-10
5.9603e-10
5.8833e-10
5.8107e-10
5.7424e-10
5.6784e-10
5.6185e-10
5.5624e-10
5.5101e-10
5.4614e-10
5.4161e-10
5.3741e-10
5.3353e-10
5.2995e-10
5.2667e-10
5.2366e-10
5.2092e-10
5.1843e-10
5.1619e-10
5.1418e-10
5.1239e-10
5.1081e-10
5.0944e-10
5.0835e-10
5.0755e-10
5.0676e-10
5.0494e-10
5.0109e-10
4.9988e-10
5.1241e-10
5.481e-10
5.6392e-10
4.0348e-10
2.8828e-10
3.707e-10
4.9915e-10
9.299e-10
1
1
1
1
1
1
1
1
1
1
1
1
1
1
1
1
1
1
1
1
1
1
1
1
1
1
1
1
1
1
1
1
1
1
1
1
1
1
1
1
1
1
1
1
1
1
1
1
1
1
1
1
1
1
1
1
1
1
1
1
1
1
1
1
1
1
1
1
1
1
1
1
1
1
1
1
1
1
1
1
1
1
1
1
1
1
1
1
1
1
1
1
1
1
1
1
1
1
1
1
1
1
1
1
1
1
1
1
1
1
1
1
1
1
1
1
1
1
1
1
1
1
1
1
1
1
1
1
1
1
1
1
1
1
1
1
1
1
1
1
1
1
1
1
1
1
1
1
1
1
1
1
1
1
1
1
1
1
1
1
1
1
1
1
1
1
1
1
1
1
1
1
1
1
1
1
1
1
1
1
1
1
1
1
1
1
1
1
1
1
1
1
1
1
1
1
1
1
1
1
1
1
1
1
1
1
1
1
1
1
1
1
1
1
1
1
1
1
1
1
1
1
1
1
1
1
1
1
1
1
1
1
1
1
1
1
1
1
1
1
1
1
1
1
1
1
1
1
1
1
1
1
1
1
1
1
1
1
1
1
1
1
1
1
1
1
1
1
1
1
1
1
1
1
1
1
1
1
1
0.99996
0.99604
0.68023
0.001106
3.4977e-06
1.6061e-08
3.7728e-10
3.9128e-11
2.2285e-11
4.1816e-11
1.7625e-10
9.0806e-10
4.1106e-09
1.5537e-08
3.9741e-08
7.2844e-08
9.8993e-08
1.1374e-07
1.1835e-07
1.1773e-07
1.1473e-07
1.1091e-07
1.0675e-07
1.0334e-07
1.001e-07
9.797e-08
9.6665e-08
9.5454e-08
9.3002e-08
8.8846e-08
8.5142e-08
8.8251e-08
1.1016e-07
1.3197e-07
1.1067e-07
5.0903e-08
1.9768e-08
4.9135e-09
2.1485e-09
1.1369e-09
8.2959e-10
6.1266e-10
6.9148e-10
8.1056e-10
1.1165e-09
1.3471e-09
1.469e-09
1.5005e-09
1.4719e-09
1.4164e-09
1.3536e-09
1.2953e-09
1.2449e-09
1.2027e-09
1.1669e-09
1.1355e-09
1.1067e-09
1.0794e-09
1.0531e-09
1.0276e-09
1.0029e-09
9.79e-10
9.5587e-10
9.3353e-10
9.1196e-10
8.9116e-10
8.7109e-10
8.5175e-10
8.331e-10
8.1513e-10
7.9782e-10
7.8116e-10
7.6513e-10
7.4973e-10
7.3494e-10
7.2075e-10
7.0717e-10
6.9416e-10
6.8173e-10
6.6986e-10
6.5854e-10
6.4777e-10
6.3753e-10
6.278e-10
6.1857e-10
6.0983e-10
6.0157e-10
5.9377e-10
5.8642e-10
5.7949e-10
5.7298e-10
5.6687e-10
5.6115e-10
5.558e-10
5.508e-10
5.4615e-10
5.4183e-10
5.3782e-10
5.3413e-10
5.3073e-10
5.2761e-10
5.2477e-10
5.2219e-10
5.1987e-10
5.1778e-10
5.1592e-10
5.143e-10
5.1297e-10
5.1196e-10
5.1098e-10
5.0897e-10
5.0494e-10
5.0359e-10
5.161e-10
5.5191e-10
5.6774e-10
4.062e-10
2.9022e-10
3.7315e-10
5.0239e-10
9.3575e-10
1
1
1
1
1
1
1
1
1
1
1
1
1
1
1
1
1
1
1
1
1
1
1
1
1
1
1
1
1
1
1
1
1
1
1
1
1
1
1
1
1
1
1
1
1
1
1
1
1
1
1
1
1
1
1
1
1
1
1
1
1
1
1
1
1
1
1
1
1
1
1
1
1
1
1
1
1
1
1
1
1
1
1
1
1
1
1
1
1
1
1
1
1
1
1
1
1
1
1
1
1
1
1
1
1
1
1
1
1
1
1
1
1
1
1
1
1
1
1
1
1
1
1
1
1
1
1
1
1
1
1
1
1
1
1
1
1
1
1
1
1
1
1
1
1
1
1
1
1
1
1
1
1
1
1
1
1
1
1
1
1
1
1
1
1
1
1
1
1
1
1
1
1
1
1
1
1
1
1
1
1
1
1
1
1
1
1
1
1
1
1
1
1
1
1
1
1
1
1
1
1
1
1
1
1
1
1
1
1
1
1
1
1
1
1
1
1
1
1
1
1
1
1
1
1
1
1
1
1
1
1
1
1
1
1
1
1
1
1
1
1
1
1
1
1
1
1
1
1
1
1
1
1
1
1
1
1
1
1
1
1
1
1
1
1
1
1
1
1
1
1
1
1
1
1
1
1
1
1
1
1
0.99988
0.99243
0.5137
0.00033769
4.9163e-07
2.4611e-09
9.1238e-11
2.1214e-11
2.4966e-11
6.6845e-11
2.491e-10
1.2275e-09
5.1135e-09
1.7986e-08
4.3178e-08
7.5565e-08
1.0009e-07
1.1302e-07
1.1696e-07
1.1501e-07
1.1152e-07
1.0827e-07
1.044e-07
1.0162e-07
9.9691e-08
9.7897e-08
9.5614e-08
9.2326e-08
8.851e-08
8.7943e-08
9.7254e-08
1.2951e-07
1.5738e-07
1.2084e-07
8.0612e-08
3.2234e-08
1.36e-08
4.4968e-09
2.4975e-09
1.1342e-09
7.9189e-10
5.9168e-10
6.7783e-10
7.9732e-10
1.0936e-09
1.3146e-09
1.4316e-09
1.4622e-09
1.4352e-09
1.3822e-09
1.3224e-09
1.2672e-09
1.22e-09
1.1807e-09
1.147e-09
1.117e-09
1.089e-09
1.0622e-09
1.0364e-09
1.0113e-09
9.8694e-10
9.634e-10
9.4066e-10
9.1871e-10
8.9754e-10
8.7715e-10
8.5749e-10
8.3856e-10
8.2034e-10
8.028e-10
7.8593e-10
7.6972e-10
7.5415e-10
7.3921e-10
7.2489e-10
7.1117e-10
6.9806e-10
6.8552e-10
6.7356e-10
6.6215e-10
6.5129e-10
6.4095e-10
6.3114e-10
6.2182e-10
6.1299e-10
6.0464e-10
5.9674e-10
5.8928e-10
5.8224e-10
5.7562e-10
5.694e-10
5.6356e-10
5.581e-10
5.5299e-10
5.4822e-10
5.4379e-10
5.3968e-10
5.3588e-10
5.3239e-10
5.2919e-10
5.2627e-10
5.2362e-10
5.2123e-10
5.1909e-10
5.172e-10
5.1563e-10
5.1439e-10
5.132e-10
5.11e-10
5.0678e-10
5.0527e-10
5.1768e-10
5.5347e-10
5.6923e-10
4.072e-10
2.9091e-10
3.7399e-10
5.0348e-10
9.3769e-10
1
1
1
1
1
1
1
1
1
1
1
1
1
1
1
1
1
1
1
1
1
1
1
1
1
1
1
1
1
1
1
1
1
1
1
1
1
1
1
1
1
1
1
1
1
1
1
1
1
1
1
1
1
1
1
1
1
1
1
1
1
1
1
1
1
1
1
1
1
1
1
1
1
1
1
1
1
1
1
1
1
1
1
1
1
1
1
1
1
1
1
1
1
1
1
1
1
1
1
1
1
1
1
1
1
1
1
1
1
1
1
1
1
1
1
1
1
1
1
1
1
1
1
1
1
1
1
1
1
1
1
1
1
1
1
1
1
1
1
1
1
1
1
1
1
1
1
1
1
1
1
1
1
1
1
1
1
1
1
1
1
1
1
1
1
1
1
1
1
1
1
1
1
1
1
1
1
1
1
1
1
1
1
1
1
1
1
1
1
1
1
1
1
1
1
1
1
1
1
1
1
1
1
1
1
1
1
1
1
1
1
1
1
1
1
1
1
1
1
1
1
1
1
1
1
1
1
1
1
1
1
1
1
1
1
1
1
1
1
1
1
1
1
1
1
1
1
1
1
1
1
1
1
1
1
1
1
1
1
1
1
1
1
1
1
1
1
1
1
1
1
1
1
1
1
1
1
1
1
1
1
1
0.99999
0.99976
0.97583
0.036889
2.6674e-05
6.7435e-08
9.7567e-10
9.7794e-11
4.089e-11
4.3683e-11
1.1846e-10
3.9496e-10
1.7418e-09
6.543e-09
2.1569e-08
4.8065e-08
7.9154e-08
1.0131e-07
1.1128e-07
1.1412e-07
1.131e-07
1.0911e-07
1.0574e-07
1.0288e-07
1.0063e-07
9.8205e-08
9.5478e-08
9.1461e-08
8.8396e-08
8.952e-08
1.0085e-07
1.3057e-07
1.4457e-07
1.5456e-07
1.061e-07
6.7354e-08
2.8194e-08
1.4458e-08
4.4295e-09
2.4009e-09
1.1013e-09
7.7594e-10
5.8123e-10
6.6439e-10
7.819e-10
1.076e-09
1.2986e-09
1.4163e-09
1.4439e-09
1.4117e-09
1.3545e-09
1.2939e-09
1.2405e-09
1.196e-09
1.159e-09
1.1268e-09
1.0974e-09
1.0699e-09
1.0435e-09
1.018e-09
9.9328e-10
9.6937e-10
9.4626e-10
9.2396e-10
9.0245e-10
8.8174e-10
8.6179e-10
8.4259e-10
8.2412e-10
8.0636e-10
7.8929e-10
7.7289e-10
7.5716e-10
7.4207e-10
7.2762e-10
7.1379e-10
7.0055e-10
6.8791e-10
6.7585e-10
6.6434e-10
6.5338e-10
6.4295e-10
6.3304e-10
6.2363e-10
6.147e-10
6.0624e-10
5.9824e-10
5.9067e-10
5.8353e-10
5.768e-10
5.7047e-10
5.6452e-10
5.5894e-10
5.5373e-10
5.4886e-10
5.4433e-10
5.4014e-10
5.3626e-10
5.3269e-10
5.2942e-10
5.2644e-10
5.2374e-10
5.213e-10
5.1914e-10
5.1731e-10
5.1583e-10
5.1442e-10
5.12e-10
5.0759e-10
5.0591e-10
5.1817e-10
5.5385e-10
5.6948e-10
4.073e-10
2.9092e-10
3.7396e-10
5.0339e-10
9.3746e-10
1
1
1
1
1
1
1
1
1
1
1
1
1
1
1
1
1
1
1
1
1
1
1
1
1
1
1
1
1
1
1
1
1
1
1
1
1
1
1
1
1
1
1
1
1
1
1
1
1
1
1
1
1
1
1
1
1
1
1
1
1
1
1
1
1
1
1
1
1
1
1
1
1
1
1
1
1
1
1
1
1
1
1
1
1
1
1
1
1
1
1
1
1
1
1
1
1
1
1
1
1
1
1
1
1
1
1
1
1
1
1
1
1
1
1
1
1
1
1
1
1
1
1
1
1
1
1
1
1
1
1
1
1
1
1
1
1
1
1
1
1
1
1
1
1
1
1
1
1
1
1
1
1
1
1
1
1
1
1
1
1
1
1
1
1
1
1
1
1
1
1
1
1
1
1
1
1
1
1
1
1
1
1
1
1
1
1
1
1
1
1
1
1
1
1
1
1
1
1
1
1
1
1
1
1
1
1
1
1
1
1
1
1
1
1
1
1
1
1
1
1
1
1
1
1
1
1
1
1
1
1
1
1
1
1
1
1
1
1
1
1
1
1
1
1
1
1
1
1
1
1
1
1
1
1
1
1
1
1
1
1
1
1
1
1
1
1
1
1
1
1
1
1
1
1
1
1
1
1
1
1
1
1
1
0.99998
0.99877
0.89168
0.0052688
1.0145e-05
7.4867e-08
2.2861e-09
2.1621e-10
8.7648e-11
7.8036e-11
1.7486e-10
5.1706e-10
2.2278e-09
8.5313e-09
2.531e-08
5.2363e-08
8.155e-08
1.0201e-07
1.1173e-07
1.1289e-07
1.1086e-07
1.0751e-07
1.0441e-07
1.0133e-07
9.8843e-08
9.5162e-08
9.1549e-08
8.8458e-08
8.9664e-08
9.7291e-08
1.1662e-07
1.5577e-07
1.7001e-07
1.7114e-07
1.1022e-07
6.7011e-08
2.7332e-08
1.3906e-08
4.3002e-09
2.3412e-09
1.0792e-09
7.6757e-10
5.8454e-10
6.8335e-10
8.1919e-10
1.1324e-09
1.3516e-09
1.4437e-09
1.4405e-09
1.3891e-09
1.3256e-09
1.2664e-09
1.2164e-09
1.1744e-09
1.1384e-09
1.1067e-09
1.0777e-09
1.0506e-09
1.0246e-09
9.9957e-10
9.7533e-10
9.5188e-10
9.2923e-10
9.0739e-10
8.8635e-10
8.6611e-10
8.4663e-10
8.2791e-10
8.0991e-10
7.9263e-10
7.7605e-10
7.6014e-10
7.4489e-10
7.3029e-10
7.1632e-10
7.0295e-10
6.9019e-10
6.78e-10
6.6638e-10
6.5531e-10
6.4477e-10
6.3474e-10
6.2521e-10
6.1617e-10
6.0759e-10
5.9947e-10
5.9179e-10
5.8453e-10
5.7769e-10
5.7124e-10
5.6518e-10
5.595e-10
5.5418e-10
5.4922e-10
5.4461e-10
5.4033e-10
5.3638e-10
5.3274e-10
5.2942e-10
5.2639e-10
5.2365e-10
5.2119e-10
5.1908e-10
5.1735e-10
5.157e-10
5.1305e-10
5.0843e-10
5.0655e-10
5.1865e-10
5.5418e-10
5.6967e-10
4.0733e-10
2.9087e-10
3.7382e-10
5.0315e-10
9.3694e-10
1
1
1
1
1
1
1
1
1
1
1
1
1
1
1
1
1
1
1
1
1
1
1
1
1
1
1
1
1
1
1
1
1
1
1
1
1
1
1
1
1
1
1
1
1
1
1
1
1
1
1
1
1
1
1
1
1
1
1
1
1
1
1
1
1
1
1
1
1
1
1
1
1
1
1
1
1
1
1
1
1
1
1
1
1
1
1
1
1
1
1
1
1
1
1
1
1
1
1
1
1
1
1
1
1
1
1
1
1
1
1
1
1
1
1
1
1
1
1
1
1
1
1
1
1
1
1
1
1
1
1
1
1
1
1
1
1
1
1
1
1
1
1
1
1
1
1
1
1
1
1
1
1
1
1
1
1
1
1
1
1
1
1
1
1
1
1
1
1
1
1
1
1
1
1
1
1
1
1
1
1
1
1
1
1
1
1
1
1
1
1
1
1
1
1
1
1
1
1
1
1
1
1
1
1
1
1
1
1
1
1
1
1
1
1
1
1
1
1
1
1
1
1
1
1
1
1
1
1
1
1
1
1
1
1
1
1
1
1
1
1
1
1
1
1
1
1
1
1
1
1
1
1
1
1
1
1
1
1
1
1
1
1
1
1
1
1
1
1
1
1
1
1
1
1
1
1
1
1
1
1
1
1
1
1
1
0.99993
0.99687
0.82404
0.0047708
1.6376e-05
1.229e-07
3.6145e-09
3.0464e-10
1.1199e-10
8.8553e-11
1.8733e-10
6.2262e-10
2.4963e-09
9.3567e-09
2.7241e-08
5.6971e-08
8.5979e-08
1.0359e-07
1.1105e-07
1.1161e-07
1.0977e-07
1.0641e-07
1.0331e-07
9.935e-08
9.5556e-08
9.1228e-08
8.851e-08
8.7617e-08
9.094e-08
1.0096e-07
1.2082e-07
1.5708e-07
1.6726e-07
1.6623e-07
1.0626e-07
6.4779e-08
2.6577e-08
1.3525e-08
4.2121e-09
2.3433e-09
1.1295e-09
8.5365e-10
6.8432e-10
8.1399e-10
9.5283e-10
1.2462e-09
1.4043e-09
1.4424e-09
1.4129e-09
1.3572e-09
1.2976e-09
1.2424e-09
1.1939e-09
1.1527e-09
1.1174e-09
1.0864e-09
1.0582e-09
1.0317e-09
1.0063e-09
9.8171e-10
9.5795e-10
9.3497e-10
9.1279e-10
8.9143e-10
8.7087e-10
8.511e-10
8.321e-10
8.1386e-10
7.9635e-10
7.7956e-10
7.6345e-10
7.4802e-10
7.3325e-10
7.1912e-10
7.056e-10
6.9269e-10
6.8036e-10
6.686e-10
6.5739e-10
6.4671e-10
6.3655e-10
6.2689e-10
6.1771e-10
6.09e-10
6.0075e-10
5.9294e-10
5.8556e-10
5.7859e-10
5.7203e-10
5.6586e-10
5.6008e-10
5.5467e-10
5.4962e-10
5.4492e-10
5.4057e-10
5.3656e-10
5.3287e-10
5.295e-10
5.2643e-10
5.2366e-10
5.2126e-10
5.1925e-10
5.1734e-10
5.1445e-10
5.0958e-10
5.0748e-10
5.194e-10
5.5479e-10
5.7012e-10
4.0752e-10
2.9093e-10
3.738e-10
5.0303e-10
9.366e-10
1
1
1
1
1
1
1
1
1
1
1
1
1
1
1
1
1
1
1
1
1
1
1
1
1
1
1
1
1
1
1
1
1
1
1
1
1
1
1
1
1
1
1
1
1
1
1
1
1
1
1
1
1
1
1
1
1
1
1
1
1
1
1
1
1
1
1
1
1
1
1
1
1
1
1
1
1
1
1
1
1
1
1
1
1
1
1
1
1
1
1
1
1
1
1
1
1
1
1
1
1
1
1
1
1
1
1
1
1
1
1
1
1
1
1
1
1
1
1
1
1
1
1
1
1
1
1
1
1
1
1
1
1
1
1
1
1
1
1
1
1
1
1
1
1
1
1
1
1
1
1
1
1
1
1
1
1
1
1
1
1
1
1
1
1
1
1
1
1
1
1
1
1
1