/*--------------------------------*- C++ -*----------------------------------*\
| =========                 |                                                 |
| \\      /  F ield         | OpenFOAM: The Open Source CFD Toolbox           |
|  \\    /   O peration     | Version:  5.x                                   |
|   \\  /    A nd           | Web:      www.OpenFOAM.org                      |
|    \\/     M anipulation  |                                                 |
\*---------------------------------------------------------------------------*/
FoamFile
{
    version     2.0;
    format      ascii;
    class       volScalarField;
    location    "125";
    object      gamma;
}
// * * * * * * * * * * * * * * * * * * * * * * * * * * * * * * * * * * * * * //

dimensions      [0 0 0 0 0 0 0];

internalField   nonuniform List<scalar> 
86400
(
2.256e-06
2.946e-06
4.623e-06
9.345e-06
2.012e-05
3.369e-05
3.899e-05
4.613e-05
5.643e-05
5.738e-05
5.633e-05
4.147e-05
2.909e-05
1.868e-05
3.337e-05
8.753e-05
0.0004177
0.0008784
0.001524
0.001381
0.001629
0.00207
0.003321
0.003305
0.003416
0.004808
0.005654
0.006609
0.00673
0.006841
0.006513
0.006734
0.006872
0.006891
0.007086
0.008092
0.007998
0.00737
0.005791
0.005185
0.004603
0.004816
0.004455
0.003768
0.003663
0.004107
0.005239
0.006097
0.006727
0.006385
0.006465
0.006746
0.007015
0.007114
0.007128
0.007692
0.008545
0.009094
0.009261
0.009024
0.008006
0.007892
0.007335
0.007419
0.008554
0.01041
0.01214
0.01286
0.01085
0.009756
0.01057
0.0124
0.01505
0.01375
0.0121
0.0101
0.008159
0.007817
0.008898
0.01009
0.01277
0.01428
0.01384
0.01293
0.01257
0.01152
0.01189
0.01182
0.01257
0.01332
0.0127
0.0141
0.01604
0.02056
0.02284
0.02427
0.02165
0.02107
0.02094
0.02035
0.01935
0.02001
0.01806
0.01529
0.01031
0.009492
0.01042
0.01554
0.01788
0.01888
0.01565
0.01415
0.0122
0.009632
0.006607
0.005066
0.004522
0.004418
0.00415
0.003872
0.003774
0.003714
0.00401
0.004106
0.003965
0.003814
0.003622
0.003461
0.003167
0.002674
0.001954
0.001627
0.001468
0.001409
0.001384
0.001479
0.001653
0.001925
0.00108
0.0003516
0.0001267
0.0001133
0.0001539
0.0002025
0.0001492
5.969e-05
2.532e-05
1.663e-05
2.329e-05
3.793e-05
0.0001061
0.0002675
0.0006988
0.0009157
0.001207
0.001665
0.001916
0.002291
0.05366
0.9619
2.93e-06
3.441e-06
5.08e-06
8.537e-06
1.605e-05
2.395e-05
2.59e-05
2.88e-05
3.11e-05
2.291e-05
2.089e-05
1.91e-05
1.994e-05
2.589e-05
5.618e-05
0.0001336
0.0004051
0.0009001
0.001759
0.002394
0.003769
0.006244
0.009763
0.01034
0.01013
0.01012
0.008638
0.007082
0.005801
0.004896
0.004506
0.00533
0.006542
0.00797
0.009468
0.01127
0.01169
0.01181
0.01064
0.009922
0.008627
0.008386
0.007887
0.007135
0.006949
0.007726
0.008775
0.009876
0.01097
0.01128
0.01224
0.01361
0.01495
0.01592
0.0159
0.01427
0.0123
0.01074
0.00956
0.009109
0.00873
0.008944
0.008307
0.008514
0.009919
0.01351
0.01613
0.01753
0.01554
0.01485
0.0163
0.01686
0.01544
0.01194
0.009481
0.008867
0.01063
0.01367
0.01643
0.01764
0.02009
0.02181
0.02385
0.02478
0.02547
0.02426
0.02525
0.02539
0.0283
0.03214
0.03372
0.03738
0.03918
0.039
0.03645
0.0339
0.02967
0.02572
0.02128
0.01946
0.01936
0.02306
0.02779
0.02476
0.01473
0.01142
0.01134
0.01422
0.01885
0.0215
0.01761
0.01684
0.01738
0.0174
0.01571
0.01381
0.01254
0.01232
0.0117
0.0107
0.01004
0.009135
0.008881
0.008651
0.00826
0.008296
0.008135
0.007947
0.007035
0.005708
0.003981
0.003297
0.002966
0.003337
0.003724
0.003788
0.003674
0.003443
0.001979
0.0008071
0.0004766
0.0003849
0.000357
0.0003477
0.0002855
0.0001627
0.0001232
0.0001433
0.0002769
0.0004375
0.0007023
0.001198
0.002188
0.003307
0.006954
0.01836
0.04546
0.1793
0.6575
0.9708
4.771e-06
5.334e-06
6.754e-06
8.932e-06
1.446e-05
1.871e-05
1.868e-05
1.994e-05
1.907e-05
1.442e-05
1.455e-05
1.851e-05
2.549e-05
4.521e-05
0.0001005
0.0002844
0.000764
0.001906
0.003222
0.004947
0.006619
0.01093
0.01538
0.01585
0.01673
0.01914
0.01769
0.01455
0.0114
0.008518
0.007901
0.01036
0.01297
0.01458
0.01452
0.01417
0.01315
0.01323
0.0122
0.01096
0.008971
0.008501
0.008036
0.00847
0.009779
0.01223
0.01424
0.01651
0.01917
0.01755
0.01482
0.01213
0.01024
0.009495
0.01021
0.009467
0.008668
0.007823
0.007441
0.007453
0.007938
0.008737
0.008779
0.0102
0.01125
0.01279
0.01401
0.01477
0.0136
0.0134
0.01399
0.01212
0.009965
0.008917
0.009224
0.01333
0.02135
0.02949
0.03329
0.03488
0.03688
0.03916
0.04304
0.04613
0.05056
0.04945
0.04838
0.04495
0.03515
0.02509
0.01662
0.01179
0.01114
0.01407
0.0172
0.02028
0.02188
0.01778
0.01427
0.01343
0.01387
0.01661
0.02078
0.01758
0.011
0.00963
0.01156
0.01662
0.02565
0.02799
0.02452
0.02737
0.03148
0.03321
0.02968
0.02603
0.02176
0.02014
0.01805
0.01618
0.01399
0.01309
0.01239
0.01164
0.01068
0.01042
0.009887
0.00957
0.008435
0.007021
0.005242
0.004451
0.003972
0.004587
0.005469
0.005509
0.005156
0.004462
0.002842
0.001556
0.001184
0.001033
0.00106
0.001081
0.001013
0.0007516
0.0006098
0.0007401
0.001322
0.002097
0.0032
0.004601
0.007919
0.01443
0.03771
0.1308
0.3315
0.7931
0.9475
0.9954
8.629e-06
8.794e-06
9.339e-06
9.819e-06
1.258e-05
1.282e-05
1.111e-05
1.109e-05
1.11e-05
1.044e-05
1.374e-05
1.399e-05
1.534e-05
3.126e-05
8.906e-05
0.0002274
0.0006365
0.001118
0.0009068
0.0009687
0.001103
0.001431
0.002348
0.00317
0.004218
0.006575
0.008528
0.008744
0.008399
0.007403
0.007294
0.01101
0.01577
0.01931
0.01859
0.01662
0.01459
0.01521
0.01486
0.0139
0.01205
0.01258
0.01452
0.01897
0.02032
0.01931
0.01507
0.01241
0.0119
0.01039
0.007813
0.006217
0.005752
0.005427
0.006065
0.005333
0.00432
0.003905
0.004599
0.005829
0.007377
0.009173
0.01031
0.01198
0.0125
0.01269
0.01202
0.01136
0.01008
0.01221
0.01537
0.01393
0.01293
0.01347
0.01327
0.02103
0.03319
0.04006
0.03684
0.03792
0.03204
0.02665
0.02283
0.0188
0.01629
0.01568
0.01445
0.01296
0.01068
0.009097
0.007639
0.006361
0.006987
0.00911
0.01141
0.01362
0.01609
0.01253
0.01002
0.009518
0.01041
0.01325
0.01855
0.01728
0.01116
0.007886
0.007558
0.01022
0.01445
0.01629
0.01478
0.01551
0.01534
0.02026
0.02334
0.02818
0.02959
0.03343
0.03003
0.02774
0.02283
0.0218
0.01983
0.0182
0.01651
0.01607
0.01563
0.01565
0.01471
0.01309
0.01039
0.009261
0.008796
0.009295
0.009466
0.007775
0.005821
0.003816
0.003112
0.002512
0.002538
0.002384
0.002483
0.002491
0.002694
0.00285
0.003354
0.005723
0.01145
0.01596
0.02055
0.02576
0.03924
0.08584
0.185
0.5604
0.8199
0.9764
0.9981
0.9999
1.883e-05
1.616e-05
1.447e-05
1.305e-05
1.239e-05
1.082e-05
7.868e-06
7.506e-06
8.675e-06
9.608e-06
1.505e-05
1.149e-05
6.102e-06
1.024e-05
3.954e-05
0.0001545
0.0008577
0.0008805
0.0003583
0.0002128
0.0002428
0.0003149
0.0005797
0.0006346
0.0009301
0.00217
0.005796
0.01196
0.01823
0.01358
0.008749
0.008541
0.008217
0.008008
0.007759
0.006834
0.005484
0.006839
0.009702
0.01306
0.01133
0.00812
0.005045
0.004249
0.0034
0.002888
0.002514
0.002892
0.004301
0.005691
0.005009
0.003598
0.003952
0.004503
0.005425
0.004547
0.003275
0.003169
0.004299
0.006843
0.01066
0.01546
0.02021
0.02338
0.02047
0.01444
0.01111
0.008524
0.00627
0.006201
0.007533
0.006865
0.008575
0.01221
0.01375
0.01552
0.01765
0.01468
0.01136
0.01181
0.009028
0.006442
0.005279
0.004715
0.004842
0.006276
0.006943
0.006183
0.005187
0.004622
0.003622
0.003345
0.00426
0.005865
0.009114
0.0113
0.01341
0.0106
0.009252
0.007606
0.00521
0.004129
0.005348
0.006563
0.007486
0.008747
0.009472
0.01161
0.01365
0.01355
0.01055
0.009584
0.008366
0.01257
0.01348
0.01506
0.0139
0.01466
0.01148
0.01192
0.01078
0.01096
0.01022
0.009321
0.008458
0.00799
0.007646
0.008212
0.008915
0.009448
0.00928
0.008898
0.008222
0.007476
0.006679
0.004932
0.003549
0.002712
0.002505
0.002333
0.002769
0.003215
0.004162
0.00556
0.007473
0.008857
0.009932
0.01236
0.0206
0.0291
0.04658
0.09052
0.188
0.4048
0.7035
0.9003
0.9781
0.9984
0.9999
1
3.009e-05
2.324e-05
1.967e-05
1.701e-05
1.27e-05
9.476e-06
7.345e-06
7.223e-06
1.025e-05
1.539e-05
3.054e-05
1.645e-05
5.513e-06
5e-06
2.979e-05
0.0001075
0.0006238
0.0005033
0.0001825
9.043e-05
0.0001472
0.0002088
0.0003852
0.00025
0.0002357
0.0003671
0.0007954
0.002376
0.005882
0.005203
0.003057
0.00229
0.00192
0.001871
0.002448
0.002549
0.001669
0.001617
0.002059
0.0019
0.00101
0.0005539
0.0002014
0.0001022
6.604e-05
3.622e-05
1.808e-05
2.254e-05
5.084e-05
0.0001181
0.0001748
0.0002421
0.0004349
0.001078
0.001879
0.001615
0.0008962
0.0007536
0.0011
0.002578
0.005445
0.009064
0.0106
0.01229
0.01127
0.007942
0.008225
0.006968
0.004871
0.004284
0.005373
0.004858
0.006581
0.008389
0.006855
0.00476
0.003286
0.002574
0.00275
0.004313
0.004961
0.004537
0.003571
0.003364
0.003784
0.00563
0.007493
0.007412
0.00744
0.007693
0.008192
0.006843
0.007036
0.007129
0.007438
0.008395
0.009135
0.008794
0.01059
0.01056
0.007541
0.005141
0.004979
0.005621
0.007607
0.009016
0.006979
0.007483
0.007835
0.007268
0.004259
0.002857
0.001927
0.003074
0.004198
0.005821
0.005885
0.005595
0.004462
0.00473
0.004269
0.004254
0.003987
0.00365
0.003386
0.003245
0.00315
0.003606
0.004288
0.005063
0.005489
0.005762
0.005763
0.005269
0.005176
0.004135
0.003921
0.00378
0.004168
0.004182
0.00522
0.006249
0.007708
0.009856
0.0132
0.01686
0.02241
0.03237
0.05844
0.1065
0.2375
0.4238
0.7221
0.8715
0.9703
0.9946
0.9993
0.9999
1
1
3.939e-05
2.599e-05
1.94e-05
1.438e-05
1.199e-05
1.056e-05
1.075e-05
1.252e-05
2.281e-05
3.588e-05
6.113e-05
2.976e-05
5.422e-06
3.732e-06
1.707e-05
8.967e-05
0.0009074
0.001698
0.0007561
0.0004348
0.0008536
0.0009868
0.001396
0.0006031
0.0003345
0.0003528
0.0006144
0.001414
0.003843
0.003822
0.002456
0.00126
0.000961
0.001053
0.001576
0.001687
0.0008513
0.000604
0.0007652
0.0005879
0.0001852
5.014e-05
7.322e-06
1.807e-06
9.258e-07
2.837e-07
1.292e-07
2.295e-07
1.103e-06
5.057e-06
1.366e-05
1.577e-05
1.81e-05
3.055e-05
3.368e-05
4.139e-05
5.495e-05
0.0001166
0.0003714
0.001355
0.003003
0.005676
0.007673
0.01147
0.0118
0.007089
0.007026
0.005554
0.003983
0.002912
0.003463
0.002753
0.004261
0.00581
0.005417
0.003687
0.002491
0.002046
0.002193
0.003722
0.00557
0.007059
0.007627
0.008125
0.008232
0.008254
0.008543
0.007684
0.009822
0.01536
0.01715
0.01399
0.01055
0.008139
0.006916
0.006065
0.004818
0.004216
0.00513
0.005703
0.005748
0.004266
0.004295
0.006538
0.01235
0.01546
0.0123
0.01121
0.009644
0.006484
0.003453
0.001693
0.001014
0.001549
0.002646
0.003414
0.003196
0.002533
0.001931
0.002069
0.002027
0.002111
0.002117
0.002029
0.001898
0.001749
0.001626
0.001812
0.002234
0.002949
0.003587
0.004119
0.004308
0.00381
0.003911
0.004452
0.005608
0.007249
0.0103
0.0117
0.01477
0.01881
0.0249
0.03459
0.05652
0.09409
0.1612
0.2494
0.4158
0.5924
0.764
0.8816
0.9731
0.9934
0.9992
0.9999
1
1
1
1
6.34e-05
3.173e-05
1.94e-05
1.353e-05
1.272e-05
1.31e-05
1.986e-05
3.003e-05
4.169e-05
3.448e-05
4.506e-05
1.981e-05
3.842e-06
4.411e-06
2.526e-05
0.0001728
0.00199
0.006189
0.004983
0.005485
0.007853
0.007949
0.008685
0.003865
0.001762
0.0007751
0.0005055
0.0006376
0.001364
0.001717
0.001541
0.001219
0.001011
0.001324
0.002235
0.0027
0.001394
0.0009959
0.001041
0.0003467
5.416e-05
5.792e-06
5.614e-07
1.103e-07
9.683e-08
3.316e-08
1.556e-08
2.107e-08
4.331e-08
1.727e-07
5.646e-07
6.97e-07
1.03e-06
2.103e-06
2.187e-06
2.497e-06
5.224e-06
2.126e-05
0.0001195
0.000728
0.002051
0.004371
0.00683
0.01308
0.01351
0.008068
0.006378
0.004522
0.003033
0.002294
0.002367
0.001981
0.002691
0.00413
0.005171
0.004855
0.003531
0.003483
0.003945
0.006305
0.008857
0.0118
0.01438
0.01644
0.01595
0.01469
0.01499
0.01469
0.01939
0.03588
0.04844
0.04508
0.02433
0.01678
0.01249
0.009797
0.008179
0.008161
0.008678
0.01079
0.01535
0.01551
0.01472
0.01323
0.01444
0.01314
0.01066
0.01032
0.009696
0.006561
0.00317
0.0009914
0.0006213
0.001004
0.002151
0.003004
0.003306
0.002126
0.001547
0.001659
0.001745
0.001809
0.001852
0.001865
0.001842
0.001804
0.001802
0.002122
0.00275
0.003761
0.004935
0.006015
0.00649
0.00598
0.006545
0.008455
0.01315
0.02063
0.03417
0.04993
0.082
0.1269
0.1867
0.2279
0.3363
0.5193
0.7013
0.8219
0.916
0.9626
0.9865
0.9955
0.9993
0.9998
1
1
1
1
1
1
0.0001039
3.594e-05
1.755e-05
1.11e-05
1.17e-05
1.588e-05
4.129e-05
4.62e-05
3.627e-05
2.11e-05
1.554e-05
9.258e-06
5.381e-06
1.31e-05
8.717e-05
0.0004549
0.001425
0.002466
0.001885
0.001885
0.003912
0.009656
0.01945
0.02007
0.01516
0.005374
0.001809
0.000966
0.001136
0.001537
0.002139
0.001921
0.001356
0.001582
0.002121
0.00246
0.001484
0.00119
0.001498
0.0002246
1.57e-05
7.818e-07
5.666e-08
1.659e-08
5.353e-08
4.111e-08
2.586e-08
2.496e-08
2.497e-08
3.433e-08
1.193e-07
2.157e-07
5.087e-07
7.241e-07
4.905e-07
2.871e-07
5.281e-07
3.178e-06
3.204e-05
0.0003796
0.001695
0.004003
0.005708
0.009307
0.00837
0.004811
0.003426
0.002831
0.00179
0.001518
0.001386
0.001188
0.00149
0.002632
0.003752
0.006916
0.009319
0.01372
0.01651
0.02377
0.03594
0.05725
0.09772
0.1344
0.1254
0.114
0.134
0.2182
0.3334
0.4741
0.4438
0.354
0.2223
0.1817
0.1211
0.1127
0.1003
0.07955
0.0728
0.05762
0.06384
0.05121
0.04603
0.03357
0.02699
0.02152
0.02215
0.01684
0.01364
0.008052
0.003659
0.001336
0.001178
0.001035
0.001526
0.001784
0.002021
0.001439
0.001265
0.001206
0.001281
0.001441
0.001613
0.001746
0.001819
0.001897
0.002101
0.002719
0.004014
0.006404
0.01079
0.01732
0.02442
0.03192
0.04612
0.0707
0.1188
0.1751
0.2363
0.3428
0.5292
0.6835
0.7998
0.8549
0.9042
0.9472
0.9775
0.9905
0.9967
0.9987
0.9996
0.9999
1
1
1
1
1
1
1
1
9.177e-05
3.104e-05
1.788e-05
1.358e-05
1.844e-05
2.94e-05
5.168e-05
3.054e-05
1.672e-05
1.081e-05
7.225e-06
9.758e-06
1.54e-05
6.081e-05
0.0003955
0.001109
0.000985
0.0004349
0.0001567
0.0001019
0.0002516
0.001216
0.006328
0.01849
0.02364
0.008886
0.002358
0.001075
0.0009666
0.001892
0.003543
0.003168
0.001708
0.001375
0.001126
0.001517
0.001946
0.002515
0.002568
0.0002339
1.039e-05
3.648e-07
3.547e-08
2.032e-08
1.374e-07
2.372e-07
1.4e-07
5.954e-08
1.427e-08
7.188e-09
2.844e-08
1.101e-07
6.122e-07
1.248e-06
4.304e-07
1.011e-07
1.244e-07
8.123e-07
1.878e-05
0.0004076
0.001752
0.003444
0.00278
0.003218
0.002464
0.001881
0.001643
0.001727
0.001551
0.002174
0.002744
0.003596
0.005945
0.01513
0.02317
0.04513
0.0786
0.1608
0.2349
0.3995
0.5258
0.5756
0.6776
0.7634
0.7996
0.8591
0.9179
0.949
0.9581
0.9668
0.9642
0.9649
0.9677
0.9648
0.95
0.9386
0.9191
0.8915
0.8683
0.8075
0.7321
0.6613
0.5757
0.3613
0.1575
0.08206
0.07229
0.0431
0.03066
0.01826
0.008123
0.003836
0.003838
0.002447
0.003227
0.004136
0.006163
0.006104
0.006753
0.005996
0.006601
0.008148
0.01008
0.01197
0.01359
0.0156
0.01948
0.02763
0.04406
0.06246
0.09126
0.1303
0.1842
0.263
0.4504
0.596
0.7181
0.7806
0.8228
0.8764
0.9337
0.9706
0.9877
0.9933
0.9962
0.998
0.9992
0.9997
0.9999
1
1
1
1
1
1
1
1
1
1
1
4.668e-05
1.781e-05
1.425e-05
1.818e-05
3.79e-05
6.489e-05
4.798e-05
1.732e-05
7.176e-06
5.736e-06
6.023e-06
1.547e-05
5.626e-05
0.0003307
0.000976
0.001478
0.0004056
4.258e-05
7.799e-06
5.041e-06
2.091e-05
0.0001708
0.002297
0.01184
0.02284
0.01139
0.00548
0.002821
0.002187
0.003501
0.004519
0.002375
0.0007067
0.0002634
0.0001928
0.0002684
0.0006479
0.001588
0.002077
0.0003371
2.141e-05
9.001e-07
1.212e-07
9.634e-08
4.602e-07
7.914e-07
5.526e-07
1.782e-07
2.976e-08
1.188e-08
4.218e-08
2.557e-07
2.94e-06
7.774e-06
2.44e-06
3.507e-07
3.049e-07
1.77e-06
3.954e-05
0.0009708
0.003467
0.003905
0.002266
0.002308
0.002343
0.002497
0.002568
0.00276
0.003229
0.00566
0.01147
0.02825
0.07043
0.1755
0.2664
0.4518
0.5986
0.7663
0.8341
0.8975
0.9263
0.9475
0.966
0.9804
0.9886
0.9945
0.9976
0.9988
0.9991
0.9992
0.9993
0.9994
0.9996
0.9995
0.9993
0.9987
0.9979
0.9968
0.9947
0.9877
0.9717
0.9541
0.9405
0.9154
0.8591
0.7555
0.7057
0.5458
0.362
0.1536
0.1006
0.05722
0.06146
0.03335
0.02729
0.02792
0.04655
0.05151
0.06214
0.05284
0.055
0.06464
0.07928
0.09965
0.1316
0.1762
0.2579
0.3975
0.5622
0.6443
0.7204
0.7811
0.8511
0.8971
0.9445
0.9697
0.9842
0.9898
0.9928
0.9951
0.9975
0.999
0.9996
0.9998
0.9999
0.9999
1
1
1
1
1
1
1
1
1
1
1
1
1
1
1.745e-05
9.551e-06
1.15e-05
1.918e-05
3.3e-05
5.607e-05
2.748e-05
1.237e-05
7.15e-06
1.546e-05
2.163e-05
9.779e-05
0.0004251
0.001188
0.001659
0.00152
0.000229
1.677e-05
2.328e-06
1.163e-06
5.857e-06
0.0001198
0.00297
0.01396
0.02236
0.01021
0.006223
0.004023
0.004029
0.00599
0.005722
0.002162
0.0003999
0.0001196
6.141e-05
8.548e-05
0.0002563
0.0006264
0.000745
0.0001813
1.712e-05
1.812e-06
4.325e-07
3.959e-07
8.211e-07
8.533e-07
5.285e-07
1.183e-07
1.547e-08
6.807e-09
2.443e-08
3.349e-07
1.006e-05
6.729e-05
3.271e-05
4.175e-06
1.998e-06
7.493e-06
9.852e-05
0.001431
0.003702
0.003224
0.001559
0.001427
0.001755
0.002857
0.004776
0.009284
0.02087
0.05008
0.1664
0.4445
0.6942
0.8016
0.8426
0.889
0.9304
0.9694
0.987
0.9946
0.9965
0.9974
0.9982
0.9992
0.9997
0.9999
1
1
1
1
1
1
1
1
1
1
0.9999
0.9999
0.9999
0.9997
0.9993
0.9989
0.9984
0.9976
0.9954
0.9899
0.9836
0.968
0.9521
0.9301
0.9029
0.868
0.8336
0.6731
0.4903
0.2634
0.2483
0.2795
0.3284
0.3497
0.4522
0.5743
0.6767
0.7512
0.8031
0.8512
0.8976
0.9298
0.9602
0.9752
0.9849
0.9895
0.994
0.996
0.998
0.999
0.9996
0.9997
0.9998
0.9999
0.9999
1
1
1
1
1
1
1
1
1
1
1
1
1
1
1
1
1
1
1
1.252e-05
1.12e-05
1.451e-05
2.473e-05
3.887e-05
5.721e-05
2.415e-05
1.404e-05
1.584e-05
3.152e-05
6.712e-05
0.0003252
0.0009661
0.001562
0.001933
0.001229
0.0002744
2.397e-05
3.391e-06
1.286e-06
5.392e-06
9.252e-05
0.002286
0.01065
0.02126
0.01432
0.01339
0.0115
0.012
0.01356
0.01019
0.00375
0.0009832
0.0003125
0.0001326
0.0001373
0.0003362
0.0006224
0.0006365
0.0002495
5.764e-05
1.06e-05
4.498e-06
3.267e-06
2.473e-06
2.206e-06
1.097e-06
4.897e-07
1.297e-07
1.014e-07
2.55e-07
1.786e-06
2.039e-05
7.266e-05
4.463e-05
1.188e-05
1.055e-05
3.723e-05
0.0004708
0.002983
0.004325
0.002998
0.001762
0.002327
0.00508
0.01223
0.02757
0.07939
0.2584
0.6097
0.8116
0.9049
0.9456
0.9629
0.9827
0.9929
0.9972
0.9993
0.9998
0.9998
0.9999
0.9999
1
1
1
1
1
1
1
1
1
1
1
1
1
1
1
1
1
1
1
1
1
0.9999
0.9999
0.9997
0.9994
0.999
0.9989
0.9989
0.9991
0.9991
0.9988
0.996
0.9881
0.9639
0.9356
0.9223
0.9277
0.938
0.9506
0.9645
0.9774
0.9861
0.9909
0.9941
0.9963
0.9974
0.9986
0.9991
0.9995
0.9997
0.9998
0.9999
0.9999
1
1
1
1
1
1
1
1
1
1
1
1
1
1
1
1
1
1
1
1
1
1
1
1
1
2.031e-05
2.339e-05
3.58e-05
4.471e-05
5.934e-05
6.68e-05
4.108e-05
3.458e-05
7.953e-05
0.0001089
0.0002113
0.0005346
0.001036
0.001068
0.001199
0.001015
0.0006258
8.689e-05
1.596e-05
4.689e-06
1.352e-05
0.0001382
0.002124
0.007
0.01128
0.01019
0.01357
0.0172
0.02047
0.0215
0.01644
0.008901
0.004064
0.001795
0.0007356
0.000569
0.0007972
0.001104
0.001165
0.0008386
0.0003495
0.0001211
7.424e-05
5.295e-05
2.427e-05
2.28e-05
1.519e-05
9.293e-06
3.211e-06
2.137e-06
2.106e-06
5.706e-06
1.854e-05
3.729e-05
2.981e-05
2.323e-05
5.552e-05
0.0003675
0.002826
0.008366
0.008526
0.007424
0.008202
0.01692
0.05337
0.1559
0.365
0.6801
0.8446
0.9237
0.9698
0.9916
0.9966
0.9981
0.9994
0.9998
0.9999
1
1
1
1
1
1
1
1
1
1
1
1
1
1
1
1
1
1
1
1
1
1
1
1
1
1
1
1
1
1
1
1
1
1
1
1
1
0.9998
0.9991
0.9979
0.9969
0.997
0.9977
0.9983
0.9989
0.9993
0.9996
0.9997
0.9998
0.9999
0.9999
0.9999
1
1
1
1
1
1
1
1
1
1
1
1
1
1
1
1
1
1
1
1
1
1
1
1
1
1
1
1
1
1
1
8.083e-05
9.697e-05
0.0001553
8.698e-05
9.742e-05
7.416e-05
8.433e-05
0.0001377
0.0003826
0.0002718
0.0003961
0.0002948
0.0005136
0.0003909
0.0005426
0.0003579
0.0001434
1.275e-05
1.814e-06
5.508e-07
1.623e-06
1.712e-05
0.0003057
0.001115
0.002777
0.003483
0.005129
0.008547
0.01245
0.01314
0.01119
0.008018
0.006503
0.004699
0.002816
0.001981
0.002396
0.002861
0.003512
0.004155
0.001996
0.001029
0.0006383
0.0005475
0.0002773
0.0003572
0.0002883
0.0002227
0.0001015
7.768e-05
4.735e-05
4.551e-05
6.36e-05
0.0001029
0.0001328
0.0001717
0.0005215
0.002006
0.007683
0.01595
0.0241
0.0313
0.06114
0.1851
0.5595
0.7588
0.8647
0.9546
0.9856
0.9949
0.9983
0.9996
0.9998
0.9999
1
1
1
1
1
1
1
1
1
1
1
1
1
1
1
1
1
1
1
1
1
1
1
1
1
1
1
1
1
1
1
1
1
1
1
1
1
1
1
1
1
1
0.9999
0.9998
0.9999
0.9999
0.9999
0.9999
1
1
1
1
1
1
1
1
1
1
1
1
1
1
1
1
1
1
1
1
1
1
1
1
1
1
1
1
1
1
1
1
1
1
1
1
1
1
0.0002479
0.0003305
0.0006336
0.0002688
0.0001695
9.084e-05
0.0001413
0.000349
0.0009146
0.000495
0.000522
0.0002579
0.0002282
0.0002455
0.0002102
4.481e-05
1.15e-05
7.762e-07
9.796e-08
3.414e-08
1.479e-07
3.312e-06
9.343e-05
0.0005818
0.00209
0.002241
0.004245
0.007101
0.01117
0.01158
0.01053
0.008631
0.008942
0.00926
0.007548
0.006607
0.007949
0.008653
0.01051
0.01411
0.007645
0.004288
0.002659
0.002685
0.001474
0.00143
0.001202
0.001186
0.001064
0.00111
0.0007942
0.0005877
0.0005752
0.000544
0.0006678
0.0011
0.002553
0.008032
0.02935
0.0632
0.1371
0.2884
0.5088
0.687
0.8398
0.9298
0.977
0.9957
0.999
0.9997
0.9999
1
1
1
1
1
1
1
1
1
1
1
1
1
1
1
1
1
1
1
1
1
1
1
1
1
1
1
1
1
1
1
1
1
1
1
1
1
1
1
1
1
1
1
1
1
1
1
1
1
1
1
1
1
1
1
1
1
1
1
1
1
1
1
1
1
1
1
1
1
1
1
1
1
1
1
1
1
1
1
1
1
1
1
1
1
1
1
1
1
0.0005722
0.0009485
0.002143
0.001029
0.0004186
0.0002223
0.0004571
0.0009736
0.001717
0.0009018
0.0005837
0.0003543
0.000313
0.0003218
9.013e-05
9.375e-06
1.36e-06
1.06e-07
2.296e-08
1.343e-08
1.17e-07
3.013e-06
7.875e-05
0.0005952
0.002777
0.002659
0.004213
0.006769
0.009532
0.008942
0.008223
0.006573
0.008212
0.009728
0.01148
0.01237
0.01636
0.01604
0.01799
0.0215
0.01363
0.009899
0.0074
0.007079
0.00351
0.002484
0.001427
0.001311
0.001815
0.003002
0.003054
0.002266
0.002215
0.002164
0.00401
0.007486
0.01817
0.04513
0.1504
0.3886
0.6339
0.7743
0.8998
0.9636
0.9904
0.9978
0.9996
0.9999
1
1
1
1
1
1
1
1
1
1
1
1
1
1
1
1
1
1
1
1
1
1
1
1
1
1
1
1
1
1
1
1
1
1
1
1
1
1
1
1
1
1
1
1
1
1
1
1
1
1
1
1
1
1
1
1
1
1
1
1
1
1
1
1
1
1
1
1
1
1
1
1
1
1
1
1
1
1
1
1
1
1
1
1
1
1
1
1
1
1
1
1
0.000497
0.0011
0.003101
0.001523
0.0005426
0.0004398
0.001017
0.003743
0.004716
0.002355
0.0009265
0.0004743
0.0003185
0.000313
3.019e-05
2.545e-06
4.86e-07
9.562e-08
3.867e-08
4.046e-08
4.815e-07
1.09e-05
0.0003093
0.001979
0.006466
0.004341
0.005466
0.006607
0.008505
0.008529
0.008472
0.007653
0.01105
0.01341
0.01341
0.01386
0.01542
0.01078
0.007969
0.008081
0.007365
0.009027
0.0127
0.01505
0.008263
0.004062
0.001365
0.0008921
0.0009714
0.00171
0.002475
0.003103
0.005696
0.01103
0.02414
0.05126
0.1298
0.2847
0.5949
0.7798
0.8981
0.9523
0.9882
0.9976
0.9995
0.9999
1
1
1
1
1
1
1
1
1
1
1
1
1
1
1
1
1
1
1
1
1
1
1
1
1
1
1
1
1
1
1
1
1
1
1
1
1
1
1
1
1
1
1
1
1
1
1
1
1
1
1
1
1
1
1
1
1
1
1
1
1
1
1
1
1
1
1
1
1
1
1
1
1
1
1
1
1
1
1
1
1
1
1
1
1
1
1
1
1
1
1
1
1
1
0.000816
0.001752
0.004063
0.002117
0.0005244
0.0005291
0.001631
0.007046
0.007661
0.003164
0.001087
0.0005027
0.0002061
0.000172
1.686e-05
1.877e-06
9.097e-07
6.554e-07
5.149e-07
9.052e-07
8.884e-06
0.0001163
0.001739
0.007792
0.01851
0.01112
0.01171
0.01028
0.009768
0.008346
0.008109
0.009005
0.0152
0.01992
0.01776
0.01627
0.01501
0.009461
0.005971
0.004765
0.003705
0.004555
0.006441
0.008651
0.006668
0.004871
0.002188
0.001308
0.001028
0.001582
0.002738
0.005393
0.01476
0.03988
0.102
0.2599
0.5327
0.7073
0.8477
0.9296
0.9777
0.9943
0.9992
0.9999
1
1
1
1
1
1
1
1
1
1
1
1
1
1
0.9999
0.9999
1
1
1
1
1
1
1
1
1
1
1
1
1
0.9999
1
1
1
1
1
1
1
1
1
1
1
1
1
1
1
1
1
1
1
1
1
1
1
1
1
1
1
1
1
1
1
1
1
1
1
1
1
1
1
1
1
1
1
1
1
1
1
1
1
1
1
1
1
1
1
1
1
1
1
1
1
1
1
1
1
1
0.001396
0.002774
0.006025
0.003379
0.0008196
0.0009028
0.002024
0.007238
0.007381
0.00308
0.0008536
0.0004788
0.0002573
0.0001881
2.883e-05
6.787e-06
7.704e-06
1.486e-05
1.957e-05
3.65e-05
0.0001971
0.001029
0.00528
0.01335
0.02207
0.0144
0.0155
0.01285
0.01092
0.008167
0.009226
0.01333
0.02504
0.03628
0.02917
0.022
0.01387
0.007665
0.004094
0.002802
0.001881
0.002256
0.003095
0.004707
0.006372
0.007502
0.005111
0.003865
0.00304
0.003403
0.004666
0.0138
0.05014
0.1703
0.5028
0.7433
0.8703
0.9351
0.9689
0.9877
0.9974
0.9995
0.9999
1
1
1
1
1
1
1
1
1
1
1
1
1
1
0.9999
0.9997
0.9997
0.9999
1
0.9999
0.9999
0.9997
0.9993
0.9991
0.9987
0.9981
0.998
0.9981
0.9979
0.9976
0.9975
0.9986
0.9993
0.9997
0.9998
0.9999
0.9999
0.9999
1
1
1
1
1
1
1
1
1
1
1
1
1
1
1
1
1
1
1
1
1
1
1
1
1
1
1
1
1
1
1
1
1
1
1
1
1
1
1
1
1
1
1
1
1
1
1
1
1
1
1
1
1
1
1
1
1
1
1
0.003022
0.005516
0.01014
0.004452
0.001181
0.001108
0.001457
0.004969
0.006949
0.003898
0.001512
0.001386
0.0009081
0.0006574
0.0001591
5.209e-05
6.317e-05
0.000158
0.0002876
0.0007957
0.002319
0.003959
0.005847
0.006329
0.006304
0.006475
0.01247
0.01068
0.00916
0.006161
0.005734
0.007069
0.01447
0.02529
0.02553
0.02166
0.01429
0.008719
0.005734
0.004081
0.00253
0.002333
0.002575
0.003501
0.006319
0.0113
0.01277
0.0138
0.01347
0.01392
0.02515
0.07588
0.3301
0.6799
0.8465
0.9243
0.968
0.9879
0.9962
0.999
0.9998
1
1
1
1
1
1
1
1
1
1
1
1
0.9999
0.9999
1
0.9999
0.9996
0.9985
0.998
0.9987
0.9989
0.9979
0.994
0.9806
0.9671
0.9546
0.9426
0.9215
0.911
0.9163
0.9201
0.9115
0.918
0.9523
0.9768
0.9903
0.9955
0.9969
0.9973
0.9984
0.9994
0.9998
0.9999
1
1
1
1
1
1
1
1
1
1
1
1
1
1
1
1
1
1
1
1
1
1
1
1
1
1
1
1
1
1
1
1
1
1
1
1
1
1
1
1
1
1
1
1
1
1
1
1
1
1
1
1
1
1
1
1
0.004495
0.007786
0.01334
0.005396
0.001541
0.0007856
0.0006002
0.002153
0.005168
0.005612
0.003148
0.004517
0.003179
0.002303
0.0009052
0.0004321
0.0005231
0.001347
0.002049
0.004519
0.007862
0.006888
0.004947
0.003464
0.003199
0.004285
0.01281
0.0113
0.01009
0.006979
0.005686
0.005179
0.008766
0.01645
0.023
0.0267
0.02214
0.01598
0.01212
0.008511
0.004696
0.003598
0.00338
0.003966
0.007078
0.01587
0.02499
0.04001
0.06762
0.1028
0.2194
0.5704
0.8093
0.9154
0.9628
0.9829
0.9943
0.9985
0.9997
0.9999
1
1
1
1
1
1
1
1
1
1
1
1
0.9999
0.9997
0.9996
0.9996
0.9991
0.9971
0.9911
0.9843
0.9799
0.9678
0.9314
0.847
0.7292
0.7183
0.6878
0.6642
0.6002
0.5581
0.5497
0.5574
0.5658
0.628
0.6906
0.7342
0.7966
0.8311
0.8497
0.8652
0.9194
0.9655
0.9891
0.9958
0.9981
0.9989
0.9994
0.9997
0.9999
1
1
1
1
1
1
1
1
1
1
1
1
1
1
1
1
1
1
1
1
1
1
1
1
1
1
1
1
1
1
1
1
1
1
1
1
1
1
1
1
1
1
1
1
1
1
1
1
1
1
0.9999
0.005439
0.008804
0.01558
0.004883
0.001481
0.0003814
0.0002201
0.0009015
0.005052
0.01122
0.01102
0.01631
0.01106
0.007887
0.004044
0.002768
0.00217
0.004366
0.005113
0.009346
0.01176
0.007612
0.004594
0.002769
0.003796
0.006591
0.0203
0.01867
0.01533
0.009758
0.007039
0.004621
0.005607
0.009773
0.01766
0.02958
0.03611
0.02757
0.02268
0.0167
0.01032
0.00814
0.00706
0.007606
0.01286
0.02722
0.05085
0.0999
0.24
0.4982
0.7334
0.8872
0.9541
0.9773
0.9906
0.9963
0.9992
0.9999
1
1
1
1
1
1
1
1
1
1
1
1
1
0.9999
0.9994
0.9977
0.994
0.991
0.9807
0.9538
0.9061
0.8337
0.7682
0.668
0.5412
0.4259
0.3322
0.2437
0.1846
0.1619
0.141
0.134
0.1269
0.1178
0.1305
0.1532
0.1777
0.1759
0.2405
0.3357
0.4744
0.5598
0.681
0.7549
0.8385
0.8996
0.9339
0.951
0.9769
0.9888
0.9971
0.9991
0.9996
0.9998
0.9999
1
1
1
1
1
1
1
1
1
1
1
1
1
1
1
1
1
1
1
1
1
1
1
1
1
1
1
1
1
1
1
1
1
1
1
1
1
1
1
1
1
1
1
1
0.9998
0.9995
0.9984
0.004103
0.006178
0.01251
0.005266
0.00307
0.0006184
0.0003023
0.0006342
0.003576
0.006561
0.009729
0.01509
0.01445
0.01083
0.006424
0.005801
0.004512
0.007373
0.01061
0.0141
0.01301
0.008484
0.005638
0.003841
0.004154
0.005858
0.01503
0.0163
0.01791
0.01471
0.01072
0.005525
0.004968
0.006363
0.01234
0.02442
0.03505
0.02561
0.02185
0.01857
0.01489
0.01441
0.01476
0.01915
0.03309
0.07217
0.1523
0.3752
0.6519
0.8273
0.9254
0.9702
0.9864
0.9924
0.9965
0.9988
0.9998
1
1
1
1
1
1
1
1
1
1
0.9999
0.9999
0.9998
0.9996
0.9983
0.9934
0.9743
0.9342
0.8971
0.8253
0.7118
0.5811
0.451
0.283
0.1695
0.1039
0.07281
0.04549
0.02936
0.02073
0.0203
0.02183
0.02537
0.02262
0.01949
0.0246
0.0341
0.04494
0.04931
0.05765
0.06417
0.08571
0.111
0.1495
0.2079
0.3692
0.5757
0.7175
0.7899
0.8699
0.9062
0.9426
0.9659
0.9786
0.9887
0.9969
0.9994
0.9999
1
1
1
1
1
1
1
1
1
1
1
1
1
1
1
1
1
1
1
1
1
1
1
1
1
1
1
1
1
1
1
1
1
1
1
1
1
1
1
0.9999
0.9997
0.9988
0.9944
0.9811
0.9498
0.003244
0.004137
0.00931
0.005869
0.005671
0.001007
0.0005347
0.0005582
0.002027
0.003657
0.006895
0.01014
0.01328
0.01216
0.006436
0.005448
0.004794
0.008413
0.01685
0.0207
0.01643
0.01137
0.009683
0.008398
0.008432
0.008347
0.0137
0.01442
0.01752
0.01772
0.01369
0.006261
0.005545
0.005799
0.01029
0.01911
0.02882
0.02213
0.02105
0.01948
0.01871
0.02236
0.02809
0.04019
0.07899
0.184
0.421
0.6982
0.8665
0.9444
0.9769
0.9893
0.9945
0.9969
0.9987
0.9996
0.9999
1
1
1
1
1
1
1
0.9999
0.9999
0.9998
0.9991
0.9977
0.9951
0.9902
0.9791
0.9456
0.8568
0.7085
0.5938
0.4371
0.2272
0.1124
0.06457
0.02843
0.0177
0.01301
0.009695
0.006118
0.004807
0.003114
0.003385
0.004661
0.005848
0.005378
0.004932
0.006885
0.01152
0.01813
0.0238
0.02593
0.02511
0.03053
0.03812
0.04551
0.05653
0.07457
0.1058
0.1612
0.2646
0.4761
0.6346
0.6987
0.736
0.7841
0.8604
0.9486
0.9925
0.9995
0.9999
1
1
1
1
1
1
1
1
1
1
1
1
1
1
1
1
1
1
1
1
1
1
1
1
1
1
1
1
1
1
1
1
1
1
0.9999
0.9997
0.9993
0.9981
0.9951
0.9839
0.957
0.8962
0.817
0.7403
0.003572
0.003422
0.008503
0.005741
0.006731
0.001301
0.0007233
0.0004421
0.0009887
0.001912
0.004172
0.007259
0.01341
0.01484
0.006504
0.004834
0.005297
0.01089
0.01319
0.009893
0.00557
0.005172
0.009676
0.0188
0.01936
0.01209
0.01087
0.01131
0.01517
0.01694
0.01554
0.009583
0.009085
0.007262
0.008382
0.009572
0.01124
0.009712
0.01409
0.01813
0.02219
0.03152
0.0489
0.08783
0.2317
0.5219
0.7363
0.8874
0.9576
0.9834
0.9926
0.9958
0.9982
0.9994
0.9999
1
1
1
1
1
1
1
1
0.9999
0.9997
0.9993
0.9978
0.9923
0.9783
0.951
0.9007
0.8339
0.7019
0.4946
0.2567
0.1199
0.05627
0.02512
0.01192
0.008153
0.004342
0.003426
0.002806
0.00252
0.0016
0.001771
0.001329
0.0015
0.001839
0.002354
0.002214
0.002061
0.002826
0.005194
0.008431
0.01223
0.01405
0.01331
0.0171
0.02149
0.02635
0.0335
0.04103
0.05036
0.05755
0.07115
0.09165
0.1473
0.2317
0.3766
0.5891
0.7677
0.8834
0.9746
0.9982
0.9999
1
1
1
1
1
1
1
1
1
1
1
1
1
1
1
1
1
1
1
1
1
1
1
1
1
1
1
1
1
0.9999
0.9999
0.9997
0.9992
0.9977
0.9945
0.9845
0.9655
0.9234
0.8561
0.7524
0.6673
0.5555
0.4118
0.2431
0.003768
0.003135
0.009355
0.006105
0.006357
0.001392
0.0007109
0.0004496
0.001086
0.001881
0.002722
0.004345
0.009972
0.01401
0.005643
0.00395
0.003712
0.007027
0.007398
0.006488
0.00286
0.002947
0.006355
0.02138
0.02578
0.01594
0.01203
0.01115
0.01496
0.01637
0.01683
0.01447
0.0159
0.01278
0.01065
0.00761
0.006416
0.006155
0.01238
0.02321
0.04038
0.06697
0.1435
0.3481
0.6778
0.8358
0.9202
0.9656
0.9883
0.9955
0.9986
0.9994
0.9998
1
1
1
1
1
1
1
1
1
0.9999
0.9993
0.9973
0.9936
0.983
0.9552
0.8903
0.7904
0.5896
0.3633
0.1319
0.06296
0.03247
0.01986
0.01059
0.005675
0.003172
0.002243
0.001524
0.00154
0.001379
0.001692
0.001438
0.001944
0.001653