/*--------------------------------*- C++ -*----------------------------------*\
| =========                 |                                                 |
| \\      /  F ield         | OpenFOAM: The Open Source CFD Toolbox           |
|  \\    /   O peration     | Version:  5.x                                   |
|   \\  /    A nd           | Web:      www.OpenFOAM.org                      |
|    \\/     M anipulation  |                                                 |
\*---------------------------------------------------------------------------*/
FoamFile
{
    version     2.0;
    format      ascii;
    class       volScalarField;
    location    "165";
    object      gamma;
}
// * * * * * * * * * * * * * * * * * * * * * * * * * * * * * * * * * * * * * //

dimensions      [0 0 0 0 0 0 0];

internalField   nonuniform List<scalar> 
86400
(
8.846e-08
1.253e-07
2.262e-07
5.675e-07
1.541e-06
2.977e-06
3.51e-06
4.301e-06
5.578e-06
5.715e-06
5.614e-06
3.688e-06
2.087e-06
8.462e-07
1.269e-06
3.503e-06
2.592e-05
6.728e-05
0.0001515
0.0001067
0.0001005
0.000122
0.0002518
0.0002776
0.0003559
0.0006803
0.0009687
0.001547
0.002033
0.002508
0.002341
0.002222
0.002021
0.001809
0.00174
0.002051
0.002036
0.001963
0.001593
0.001568
0.001508
0.001675
0.001444
0.001066
0.0009731
0.001104
0.001546
0.001907
0.002174
0.001986
0.002017
0.002155
0.002299
0.002379
0.002439
0.002794
0.003365
0.00382
0.004066
0.004046
0.00352
0.003518
0.003228
0.003249
0.003819
0.004771
0.005629
0.005906
0.004638
0.004044
0.004608
0.00594
0.008144
0.007476
0.006362
0.004851
0.00342
0.002979
0.003293
0.003635
0.0047
0.005181
0.004705
0.004099
0.003829
0.003387
0.003594
0.00369
0.004146
0.004562
0.00425
0.004728
0.005361
0.007164
0.008106
0.008912
0.007984
0.008122
0.008385
0.008137
0.007487
0.007706
0.006847
0.005841
0.00373
0.003476
0.003815
0.005916
0.006337
0.006187
0.00458
0.003951
0.003295
0.0025
0.001611
0.001147
0.0009755
0.000921
0.0008343
0.0008113
0.0009107
0.00103
0.001283
0.001426
0.001331
0.001202
0.001062
0.0009673
0.0008608
0.0007144
0.0004802
0.0003697
0.0003119
0.0002748
0.0002517
0.0002667
0.0003261
0.0004205
0.0002032
4.458e-05
1.08e-05
8.945e-06
1.261e-05
1.53e-05
8.031e-06
1.512e-06
2.087e-07
4.215e-08
2.519e-08
1.781e-08
4.894e-08
9.454e-08
4.363e-07
9.215e-07
5.195e-06
1.812e-05
5.569e-05
8.416e-05
0.03697
0.9953
1.245e-07
1.531e-07
2.551e-07
5.013e-07
1.14e-06
1.899e-06
2.055e-06
2.327e-06
2.556e-06
1.695e-06
1.502e-06
1.309e-06
1.257e-06
1.335e-06
2.572e-06
6.04e-06
2.302e-05
6.555e-05
0.0001626
0.0001846
0.0002266
0.0003717
0.0007457
0.001025
0.001352
0.001663
0.001467
0.001391
0.001338
0.001281
0.001122
0.001224
0.001365
0.001543
0.001783
0.002272
0.002424
0.002688
0.00263
0.002738
0.002558
0.002588
0.002292
0.001869
0.001724
0.002
0.002535
0.003202
0.003938
0.004176
0.004706
0.005532
0.006413
0.007138
0.007305
0.006387
0.005274
0.004472
0.003928
0.003794
0.003697
0.003873
0.003487
0.00355
0.004262
0.0063
0.007817
0.008593
0.007269
0.006908
0.008044
0.008604
0.00772
0.005443
0.003881
0.003373
0.004076
0.005327
0.006344
0.006604
0.007544
0.008151
0.00888
0.008988
0.009053
0.008437
0.009117
0.00966
0.01191
0.01482
0.01613
0.01831
0.01888
0.01811
0.01627
0.01492
0.01299
0.01106
0.00857
0.00747
0.007223
0.009036
0.0121
0.01091
0.005567
0.003989
0.003798
0.004728
0.006316
0.00693
0.004939
0.004535
0.004773
0.004954
0.004345
0.003353
0.00261
0.002273
0.002019
0.001989
0.002039
0.001898
0.001841
0.00175
0.001644
0.001825
0.00195
0.00207
0.001885
0.001483
0.0009385
0.0007287
0.0006232
0.0007136
0.0008263
0.0007888
0.0007372
0.0006483
0.0003075
9.183e-05
4.718e-05
3.094e-05
2.125e-05
1.236e-05
4.359e-06
8.004e-07
2.299e-07
1.41e-07
2.507e-07
3.669e-07
7.682e-07
1.451e-06
6.534e-06
1.969e-05
0.0001294
0.0009669
0.008134
0.1414
0.9345
0.9993
2.362e-07
2.726e-07
3.707e-07
5.311e-07
9.966e-07
1.381e-06
1.352e-06
1.454e-06
1.359e-06
9.316e-07
9.419e-07
1.272e-06
1.758e-06
2.905e-06
5.943e-06
1.827e-05
6.121e-05
0.0002111
0.0004159
0.0005447
0.0004781
0.0007449
0.001181
0.00168
0.002508
0.003713
0.00365
0.003396
0.003086
0.002433
0.002144
0.002689
0.00302
0.00305
0.00277
0.002718
0.002498
0.002758
0.002706
0.002457
0.00184
0.00166
0.001458
0.001532
0.001956
0.002918
0.004095
0.005779
0.008038
0.007532
0.005979
0.004595
0.0037
0.003419
0.003912
0.003572
0.003171
0.002775
0.002593
0.002627
0.002924
0.003363
0.003368
0.004119
0.00456
0.005282
0.005853
0.006217
0.005596
0.005645
0.006213
0.005224
0.004009
0.003414
0.003436
0.005337
0.00944
0.01351
0.0147
0.015
0.01584
0.01711
0.01927
0.02074
0.02313
0.02264
0.02276
0.02209
0.01778
0.01285
0.008285
0.005614
0.005155
0.006548
0.007849
0.009192
0.01003
0.007582
0.005469
0.004853
0.00483
0.005973
0.00825
0.006734
0.003581
0.00301
0.003747
0.005732
0.009602
0.009963
0.007719
0.00868
0.01041
0.01134
0.009341
0.006866
0.004563
0.003499
0.002851
0.002777
0.002502
0.002406
0.002181
0.001882
0.001632
0.001749
0.001782
0.001887
0.001752
0.001433
0.001007
0.0008263
0.0007161
0.0009036
0.001109
0.000931
0.00073
0.0005139
0.0002607
9.512e-05
5.484e-05
2.932e-05
1.731e-05
1.044e-05
5.254e-06
1.781e-06
7.833e-07
7.252e-07
1.51e-06
3.858e-06
1.303e-05
2.875e-05
9.683e-05
0.0003497
0.002729
0.03636
0.5231
0.9668
0.999
1
5.1e-07
5.215e-07
5.635e-07
5.992e-07
8.313e-07
8.455e-07
6.894e-07
6.8e-07
6.75e-07
6.191e-07
8.916e-07
8.908e-07
9.047e-07
1.878e-06
5.616e-06
1.493e-05
5.008e-05
0.0001105
7.968e-05
6.693e-05
5.046e-05
5.72e-05
0.0001131
0.0002174
0.0004357
0.0009538
0.001448
0.001731
0.00197
0.001874
0.001792
0.002767
0.003817
0.004451
0.003912
0.00344
0.002936
0.003372
0.003456
0.003009
0.002182
0.002113
0.002389
0.003508
0.004262
0.004672
0.003893
0.00368
0.00414
0.003754
0.002562
0.001907
0.001757
0.001672
0.002031
0.001718
0.001266
0.00107
0.001282
0.001754
0.002411
0.003229
0.003752
0.00465
0.004804
0.004856
0.004501
0.0042
0.003653
0.004996
0.00721
0.006446
0.00576
0.005872
0.005326
0.009108
0.01525
0.01799
0.01504
0.01579
0.0132
0.01105
0.009509
0.007586
0.006491
0.006507
0.006339
0.006136
0.005422
0.005005
0.004434
0.003734
0.004157
0.005422
0.006436
0.007271
0.008496
0.005816
0.004015
0.003475
0.00366
0.004882
0.007724
0.006992
0.003738
0.002255
0.002034
0.002933
0.004449
0.004876
0.003937
0.003989
0.003731
0.005411
0.006133
0.006883
0.006083
0.006348
0.005207
0.005318
0.004364
0.004093
0.003252
0.002627
0.002244
0.002449
0.00277
0.003124
0.003159
0.002757
0.002048
0.001788
0.001714
0.001924
0.001835
0.001092
0.0005269
0.0001809
9.928e-05
4.656e-05
3.46e-05
2.062e-05
1.354e-05
8.997e-06
6.631e-06
4.137e-06
3.779e-06
9.204e-06
4.009e-05
0.0001186
0.0003486
0.0009077
0.002848
0.01494
0.1431
0.8473
0.9877
0.9998
1
1
1.403e-06
1.145e-06
9.924e-07
8.702e-07
8.168e-07
6.813e-07
4.409e-07
4.094e-07
4.922e-07
5.61e-07
1.021e-06
6.976e-07
2.69e-07
4.454e-07
2.086e-06
9.86e-06
8.577e-05
9.137e-05
2.664e-05
1.122e-05
1.038e-05
1.244e-05
2.764e-05
3.622e-05
7.53e-05
0.0002682
0.001093
0.003249
0.006492
0.004631
0.002488
0.002216
0.001902
0.001689
0.001544
0.001335
0.00101
0.001452
0.002394
0.003225
0.002165
0.001166
0.0005703
0.000491
0.000418
0.0004052
0.0003897
0.0005753
0.001169
0.001867
0.001576
0.001012
0.001178
0.00145
0.00195
0.001542
0.0009623
0.0008815
0.001238
0.002217
0.003911
0.006404
0.009071
0.01126
0.009294
0.005871
0.004181
0.003043
0.002125
0.002294
0.00324
0.002944
0.003921
0.006155
0.006751
0.007244
0.007575
0.00494
0.002729
0.002214
0.001157
0.0005738
0.0004393
0.000468
0.0007102
0.001538
0.00248
0.002503
0.002255
0.002166
0.001736
0.001704
0.002361
0.003357
0.005194
0.005943
0.006629
0.004456
0.003419
0.002374
0.00129
0.000899
0.001324
0.001846
0.002306
0.002881
0.003108
0.003939
0.004716
0.004423
0.002931
0.002431
0.001891
0.003251
0.003326
0.003454
0.002729
0.00269
0.001842
0.002157
0.001945
0.001951
0.001668
0.001328
0.001129
0.001132
0.001169
0.001416
0.001713
0.00186
0.001825
0.001745
0.001598
0.001385
0.001009
0.0004686
0.0001754
6.641e-05
3.691e-05
1.825e-05
1.557e-05
1.189e-05
1.267e-05
1.681e-05
2.367e-05
2.81e-05
3.588e-05
6.92e-05
0.0002524
0.001005
0.004169
0.01846
0.1015
0.6383
0.9532
0.9975
0.9999
1
1
1
2.514e-06
1.794e-06
1.456e-06
1.222e-06
8.393e-07
5.701e-07
4.018e-07
3.878e-07
6.13e-07
1.052e-06
2.643e-06
1.141e-06
2.36e-07
1.711e-07
1.424e-06
5.468e-06
4.709e-05
3.44e-05
9.926e-06
4.25e-06
9.177e-06
1.429e-05
3.214e-05
1.769e-05
1.708e-05
3.217e-05
9.768e-05
0.0004732
0.001753
0.001501
0.0007181
0.0004782
0.0003718
0.0003549
0.0005126
0.0005545
0.0003167
0.0003115
0.0004252
0.0003356
0.0001166
4.594e-05
1.12e-05
4.837e-06
3.082e-06
1.606e-06
6.914e-07
1.053e-06
3.563e-06
1.195e-05
2.035e-05
3.189e-05
7.192e-05
0.0002515
0.0005514
0.0004491
0.0001964
0.0001478
0.0002272
0.0006782
0.001762
0.003356
0.00398
0.0049
0.004373
0.002861
0.003212
0.00277
0.001877
0.001793
0.002714
0.002467
0.003472
0.00395
0.002043
0.0007252
0.0002291
0.0001084
9.472e-05
0.000159
0.0001747
0.0001331
9.736e-05
0.0001254
0.0002702
0.0008986
0.002258
0.002745
0.003068
0.003329
0.003439
0.002611
0.002545
0.002361
0.002182
0.002281
0.00221
0.001972
0.002444
0.002364
0.001489
0.0008949
0.0008952
0.001158
0.001936
0.002632
0.001939
0.002197
0.002375
0.002155
0.001013
0.0005695
0.0003151
0.0005943
0.0008741
0.001325
0.001299
0.001197
0.0008813
0.001021
0.0008731
0.0008204
0.0006979
0.0005597
0.0004937
0.0004912
0.0004891
0.0006026
0.0007442
0.0008258
0.0007887
0.000736
0.0006628
0.0005154
0.0004272
0.0002427
0.0001584
8.842e-05
5.998e-05
3.119e-05
3.041e-05
3.143e-05
3.807e-05
5.704e-05
0.0001023
0.0001678
0.0003807
0.001196
0.004889
0.02185
0.1093
0.5709
0.9342
0.9936
0.9998
1
1
1
1
1
3.433e-06
1.999e-06
1.382e-06
9.53e-07
7.633e-07
6.484e-07
6.575e-07
7.952e-07
1.762e-06
3.232e-06
6.642e-06
2.522e-06
2.264e-07
1.086e-07
6.048e-07
3.52e-06
6.393e-05
0.000151
6.439e-05
3.952e-05
0.0001276
0.0001531
0.0002348
6.894e-05
3.08e-05
3.551e-05
8.383e-05
0.0002893
0.00121
0.001202
0.000659
0.0002694
0.0001905
0.0002186
0.0003786
0.000413
0.0001628
0.0001041
0.0001457
9.911e-05
1.895e-05
3.059e-06
2.222e-07
3.519e-08
1.567e-08
3.487e-09
1.265e-09
2.901e-09
2.555e-08
2.055e-07
7.869e-07
9.63e-07
1.181e-06
2.44e-06
2.847e-06
3.796e-06
5.48e-06
1.452e-05
6.438e-05
0.0003451
0.000935
0.002048
0.002917
0.004997
0.005266
0.00284
0.003095
0.00251
0.001791
0.001282
0.001586
0.0009559
0.001123
0.001104
0.0006045
0.0002017
5.622e-05
2.741e-05
2.163e-05
4.061e-05
6.691e-05
8.589e-05
9.496e-05
0.0001395
0.0002347
0.0003365
0.0005004
0.0004958
0.0008486
0.002165
0.003051
0.002414
0.001488
0.0009309
0.000617
0.0004195
0.0002301
0.0001444
0.0001443
0.000143
0.0001756
0.0001608
0.000248
0.0006447
0.002172
0.003352
0.002719
0.002648
0.002407
0.001559
0.0007182
0.000279
0.0001373
0.0002531
0.0005547
0.0008161
0.0007637
0.0005567
0.0003814
0.000424
0.0004152
0.0004373
0.0004297
0.0003764
0.0003018
0.0002273
0.0001699
0.0001678
0.0001954
0.0002516
0.0002767
0.0002734
0.0002339
0.0001526
0.0001331
0.0001462
0.000173
0.0001768
0.0002
0.0001422
0.0001502
0.0002124
0.0003833
0.0008837
0.002962
0.009491
0.02931
0.08836
0.3015
0.7896
0.9555
0.9948
0.9998
1
1
1
1
1
1
1
6.258e-06
2.529e-06
1.343e-06
8.569e-07
8.077e-07
8.445e-07
1.46e-06
2.518e-06
3.895e-06
3.015e-06
4.283e-06
1.363e-06
1.264e-07
1.115e-07
7.693e-07
5.988e-06
0.0001309
0.0006448
0.0007093
0.001186
0.002661
0.00264
0.002819
0.0008664
0.000294
0.0001015
6.293e-05
9.64e-05
0.0002952
0.0004163
0.0003621
0.0002685
0.0002125
0.0003095
0.0006199
0.0007802
0.000312
0.0002021
0.0002267
5.705e-05
5.057e-06
2.634e-07
1.156e-08
1.294e-09
1.091e-09
2.615e-10
9.545e-11
1.452e-10
3.88e-10
2.536e-09
1.268e-08
1.711e-08
2.954e-08
7.841e-08
8.309e-08
9.91e-08
2.629e-07
1.687e-06
1.652e-05
0.0001792
0.0006704
0.001714
0.002892
0.006739
0.007183
0.003886
0.003047
0.00194
0.001011
0.0005276
0.0003433
0.0001649
0.0001411
0.0001784
0.0001691
9.579e-05
2.655e-05
1.407e-05
1.067e-05
2.099e-05
4.211e-05
8.794e-05
0.0001465
0.000217
0.000239
0.0001931
0.0002164
0.0002214
0.0003694
0.001174
0.002282
0.002032
0.0008195
0.0005532
0.0003926
0.0002931
0.0002124
0.0001489
9.708e-05
8.909e-05
0.000164
0.0002256
0.0003241
0.0003742
0.0005137
0.0005024
0.0005122
0.0007213
0.0009347
0.0006946
0.000259
4.963e-05
2.759e-05
6.684e-05
0.0002431
0.0004492
0.0005302
0.0002573
0.0001488
0.0001528
0.000155
0.0001554
0.0001557
0.0001519
0.0001361
0.0001118
8.77e-05
8.707e-05
0.0001049
0.0001486
0.0001961
0.0002137
0.0001778
0.0001142
0.0001171
0.0001956
0.0004503
0.0008363
0.001425
0.001897
0.003947
0.009861
0.02609
0.05495
0.1543
0.5981
0.8674
0.9672
0.9933
0.9992
0.9999
1
1
1
1
1
1
1
1
1
1.198e-05
2.948e-06
1.156e-06
6.441e-07
7.04e-07
1.064e-06
3.81e-06
4.416e-06
3.192e-06
1.52e-06
9.475e-07
4.137e-07
1.521e-07
3.347e-07
2.819e-06
1.704e-05
7.556e-05
0.0002029
0.0002217
0.0002941
0.0009614
0.002935
0.006867
0.006767
0.004769
0.00124
0.0003142
0.0001508
0.0002063
0.0003284
0.0005339
0.0004813
0.0003119
0.0003919
0.0005686
0.0006642
0.000322
0.0002439
0.0003591
3.174e-05
9.931e-07
1.923e-08
5.903e-10
1.156e-10
5.67e-10
4.006e-10
2.155e-10
2.059e-10
2.067e-10
3.183e-10
1.708e-09
3.795e-09
1.209e-08
1.952e-08
1.155e-08
5.602e-09
1.257e-08
1.386e-07
3.048e-06
8.263e-05
0.0005855
0.00174
0.002599
0.004651
0.003547
0.001376
0.0006501
0.0003372
0.0001059
5.117e-05
2.596e-05
1.265e-05
1.021e-05
1.885e-05
2.26e-05
4.699e-05
4.144e-05
3.842e-05
3.645e-05
0.0001006
0.0005134
0.003586
0.01784
0.03073
0.02371
0.0108
0.007199
0.008743
0.01186
0.01987
0.02362
0.02002
0.01328
0.01318
0.009567
0.01363
0.01536
0.007371
0.002587
0.0005483
0.000375
0.0002442
0.0003534
0.000338
0.0002671
0.0001794
0.0002455
0.000237
0.0002604
0.0001618
4.547e-05
1.018e-05
1.118e-05
1.365e-05
3.773e-05
6.661e-05
9.154e-05
5.183e-05
3.798e-05
2.954e-05
2.746e-05
2.895e-05
3.307e-05
3.912e-05
4.217e-05
3.938e-05
3.384e-05
3.562e-05
5.277e-05
0.0001139
0.0002913
0.0006136
0.000848
0.0009375
0.001449
0.003303
0.009965
0.02412
0.04375
0.08318
0.2678
0.6582
0.8851
0.9647
0.9903
0.9981
0.9996
0.9999
1
1
1
1
1
1
1
1
1
1
1
1
1.03e-05
2.444e-06
1.185e-06
8.345e-07
1.269e-06
2.373e-06
5.046e-06
2.499e-06
1.112e-06
5.935e-07
2.991e-07
3.511e-07
4.564e-07
1.918e-06
1.779e-05
5.769e-05
5.691e-05
2.651e-05
1.03e-05
6.782e-06
2.445e-05
0.0001705
0.001384
0.005608
0.008202
0.002253
0.0004017
0.0001562
0.000149
0.0004019
0.001006
0.0009236
0.0004252
0.0003284
0.000243
0.000346
0.0004672
0.000675
0.0007515
3.415e-05
5.881e-07
7.155e-09
3.292e-10
1.596e-10
2.108e-09
4.405e-09
2.166e-09
6.839e-10
9.976e-11
3.957e-11
2.523e-10
1.562e-09
1.576e-08
4.113e-08
9.787e-09
1.386e-09
1.808e-09
2.243e-08
1.522e-06
9.404e-05
0.0006209
0.001291
0.0006932
0.0005455
0.0002146
8.002e-05
4.136e-05
2.65e-05
1.3e-05
1.367e-05
1.292e-05
1.358e-05
2.547e-05
0.0001339
0.0002532
0.00078
0.001882
0.006926
0.0199
0.139
0.6327
0.839
0.9392
0.9751
0.9854
0.9909
0.9939
0.9941
0.9915
0.9909
0.9905
0.9914
0.9931
0.9933
0.9913
0.9923
0.9917
0.9857
0.959
0.7862
0.1732
0.03591
0.01776
0.006188
0.001411
0.000389
0.0003562
0.0002425
0.0002048
0.0001038
2.02e-05
6.019e-06
1.001e-05
1.125e-05
3.884e-05
9.215e-05
0.0001998
0.0001777
0.0001739
0.0001121
0.0001012
0.000117
0.000159
0.0002442
0.0003539
0.0004344
0.0004653
0.0005516
0.000941
0.002078
0.005982
0.01423
0.02315
0.0317
0.06862
0.208
0.6266
0.8603
0.9514
0.9854
0.9961
0.9989
0.9997
0.9999
1
1
1
1
1
1
1
1
1
1
1
1
1
1
1
1
4.279e-06
1.18e-06
8.769e-07
1.217e-06
3.253e-06
6.689e-06
4.477e-06
1.151e-06
3.49e-07
2.36e-07
1.962e-07
5.018e-07
2.009e-06
1.614e-05
6.281e-05
0.0001177
2.77e-05
1.904e-06
2.63e-07
1.476e-07
9.073e-07
1.206e-05
0.0003589
0.003173
0.008074
0.003157
0.001229
0.0005361
0.0004067
0.0008381
0.001284
0.0005838
0.0001235
3.437e-05
2.252e-05
3.438e-05
0.0001107
0.0003808
0.0005908
5.766e-05
1.58e-06
2.411e-08
1.713e-09
1.292e-09
1.07e-08
2.225e-08
1.373e-08
2.989e-09
2.681e-10
7.779e-11
4.291e-10
4.864e-09
1.306e-07
4.838e-07
1.012e-07
7.289e-09
5.89e-09
6.201e-08
3.958e-06
0.0002528
0.0009449
0.0006657
0.0001652
8.765e-05
4.665e-05
2.444e-05
1.423e-05
9.599e-06
8.152e-06
1.647e-05
5.078e-05
0.000209
0.001142
0.007458
0.02093
0.09404
0.4754
0.8835
0.9636
0.9927
0.9978
0.9992
0.9997
0.9999
1
1
1
1
1
1
1
1
1
1
1
1
1
1
1
0.9996
0.9967
0.9877
0.9753
0.9379
0.7292
0.1006
0.0311
0.008969
0.003635
0.0008003
0.000256
9.798e-05
0.0002126
0.0002483
0.0004975
0.0009326
0.002615
0.002767
0.003037
0.001682
0.001224
0.001162
0.00152
0.002857
0.006627
0.01277
0.01991
0.02893
0.06471
0.187
0.6129
0.8571
0.9562
0.9838
0.9945
0.9976
0.999
0.9996
0.9999
1
1
1
1
1
1
1
1
1
1
1
1
1
1
1
1
1
1
1
1
1
1.135e-06
5.004e-07
6.365e-07
1.25e-06
2.58e-06
5.278e-06
2.047e-06
7.056e-07
3.232e-07
7.844e-07
8.899e-07
4.854e-06
2.665e-05
9.438e-05
0.0001637
0.0001881
1.965e-05
7.874e-07
6.732e-08
2.5e-08
1.917e-07
9.125e-06
0.0005871
0.004428
0.008404
0.002785
0.001438
0.000827
0.0008766
0.001621
0.001663
0.0004862
5.451e-05
1.153e-05
4.816e-06
7.624e-06
3.367e-05
0.0001127
0.0001466
2.318e-05
1.044e-06
5.515e-08
8.724e-09
8.205e-09
2.251e-08
2.4e-08
1.267e-08
1.692e-09
1.091e-10
3.613e-11
2.027e-10
6.926e-09
6.797e-07
8.791e-06
3.232e-06
1.882e-07
6.447e-08
3.616e-07
1.027e-05
0.000265
0.0004662
0.0001725
2.214e-05
7.68e-06
4.952e-06
5.87e-06
1.09e-05
3.338e-05
0.0001326
0.0005971
0.005428
0.03349
0.3717
0.8004
0.9334
0.9823
0.9964
0.9996
0.9999
1
1
1
1
1
1
1
1
1
1
1
1
1
1
1
1
1
1
1
1
1
1
1
1
0.9999
0.9995
0.9971
0.9916
0.9719
0.9146
0.6353
0.0532
0.007309
0.006241
0.005503
0.01114
0.01441
0.02513
0.02954
0.02458
0.01725
0.01821
0.02904
0.07326
0.2924
0.6555
0.878
0.9591
0.9837
0.994
0.9974
0.9988
0.9995
0.9999
1
1
1
1
1
1
1
1
1
1
1
1
1
1
1
1
1
1
1
1
1
1
1
1
1
1
1
6.252e-07
5.249e-07
7.407e-07
1.526e-06
2.909e-06
5.049e-06
1.62e-06
7.592e-07
7.914e-07
1.616e-06
3.283e-06
2.2e-05
8.609e-05
0.0001811
0.000296
0.0002154
3.603e-05
1.682e-06
1.351e-07
3.386e-08
1.985e-07
7.639e-06
0.0004913
0.003583
0.00891
0.004905
0.004359
0.003486
0.003733
0.004551
0.00337
0.000958
0.000176
4.085e-05
1.323e-05
1.409e-05
4.758e-05
0.0001082
0.0001128
3.261e-05
4.641e-06
4.994e-07
1.712e-07
1.204e-07
8.844e-08
8.031e-08
3.225e-08
1.107e-08
1.851e-09
1.326e-09
4.585e-09
6.354e-08
1.668e-06
8.709e-06
4.104e-06
5.8e-07
3.945e-07
1.859e-06
4.731e-05
0.0002802
0.000148
3.024e-05
4.355e-06
3.734e-06
1.149e-05
5.432e-05
0.0003354
0.003334
0.03071
0.2919
0.8343
0.9651
0.9927
0.998
0.9997
1
1
1
1
1
1
1
1
1
1
1
1
1
1
1
1
1
1
1
1
1
1
1
1
1
1
1
1
1
1
1
1
0.9999
0.9998
0.9994
0.9983
0.9965
0.9951
0.9924
0.9917
0.988
0.9874
0.9878
0.9872
0.9878
0.9888
0.9911
0.9946
0.9975
0.9987
0.9996
0.9999
1
1
1
1
1
1
1
1
1
1
1
1
1
1
1
1
1
1
1
1
1
1
1
1
1
1
1
1
1
1
1
1
1
8.152e-07
9.388e-07
1.698e-06
2.457e-06
4.119e-06
5.253e-06
2.802e-06
1.955e-06
4.794e-06
5.937e-06
1.216e-05
4.201e-05
0.0001185
0.0001566
0.0002224
0.000219
0.00013
1.039e-05
1.154e-06
2.227e-07
8.475e-07
1.705e-05
0.0005825
0.002491
0.004251
0.003377
0.004732
0.006219
0.007888
0.008521
0.006306
0.002991
0.00117
0.0004115
0.0001251
8.862e-05
0.0001385
0.0002094
0.000225
0.0001439
4.37e-05
1.095e-05
6.178e-06
4.23e-06
1.602e-06
1.623e-06
9.919e-07
5.348e-07
1.309e-07
7.532e-08
7.307e-08
2.754e-07
1.216e-06
2.573e-06
1.473e-06
7.106e-07
1.585e-06
1.551e-05
0.0001987
0.0004012
0.0001407
6.597e-05
4.614e-05
0.0001446
0.001499
0.01727
0.1466
0.7781
0.955
0.9896
0.9984
0.9999
1
1
1
1
1
1
1
1
1
1
1
1
1
1
1
1
1
1
1
1
1
1
1
1
1
1
1
1
1
1
1
1
1
1
1
1
1
1
1
1
1
1
1
1
1
1
1
1
1
1
1
1
1
1
1
1
1
1
1
1
1
1
1
1
1
1
1
1
1
1
1
1
1
1
1
1
1
1
1
1
1
1
1
1
1
1
1
1
2.943e-06
3.555e-06
7.278e-06
3.955e-06
6.019e-06
4.715e-06
5.33e-06
7.953e-06
2.352e-05
1.32e-05
2.381e-05
2.012e-05
5.943e-05
5.304e-05
9.389e-05
5.962e-05
1.913e-05
8.067e-07
6.309e-08
1.259e-08
4.977e-08
1.055e-06
4.591e-05
0.000228
0.000691
0.0008352
0.001305
0.002408
0.003958
0.004272
0.003594
0.002382
0.001965
0.001315
0.0006569
0.0004015
0.0005226
0.000651
0.0008688
0.001117
0.0003988
0.0001661
9.269e-05
8.09e-05
3.527e-05
5.622e-05
4.518e-05
3.42e-05
1.256e-05
8.847e-06
4.413e-06
3.79e-06
4.776e-06
6.679e-06
6.439e-06
4.975e-06
1.347e-05
5.492e-05
0.0002902
0.0004779
0.0004994
0.0007408
0.002694
0.03323
0.5891
0.9182
0.9824
0.998
0.9998
1
1
1
1
1
1
1
1
1
1
1
1
1
1
1
1
1
1
1
1
1
1
1
1
1
1
1
1
1
1
1
1
1
1
1
1
1
1
1
1
1
1
1
1
1
1
1
1
1
1
1
1
1
1
1
1
1
1
1
1
1
1
1
1
1
1
1
1
1
1
1
1
1
1
1
1
1
1
1
1
1
1
1
1
1
1
1
1
1
1
1
6.589e-06
9.051e-06
2.592e-05
1.131e-05
9.06e-06
4.51e-06
6.757e-06
1.431e-05
3.663e-05
1.657e-05
2.724e-05
1.785e-05
2.457e-05
3.516e-05
3.051e-05
3.968e-06
6.832e-07
1.942e-08
1.262e-09
2.951e-10
1.967e-09
1.169e-07
9.598e-06
0.0001005
0.0004987
0.0004814
0.001063
0.001976
0.003604
0.003794
0.003406
0.002557
0.00279
0.002912
0.002163
0.001774
0.002335
0.002576
0.003459
0.0054
0.002276
0.001064
0.0005838
0.0006286
0.0002938
0.0003119
0.0002637
0.0002827
0.0002658
0.0002847
0.0001622
7.985e-05
5.305e-05
2.922e-05
2.276e-05
2.299e-05
4.523e-05
0.0001577
0.001159
0.003207
0.01237
0.08451
0.5667
0.9216
0.9896
0.9988
0.9999
1
1
1
1
1
1
1
1
1
1
1
1
1
1
1
1
1
1
1
1
1
1
1
1
1
1
1
1
1
1
1
1
1
1
1
1
1
1
1
1
1
1
1
1
1
1
1
1
1
1
1
1
1
1
1
1
1
1
1
1
1
1
1
1
1
1
1
1
1
1
1
1
1
1
1
1
1
1
1
1
1
1
1
1
1
1
1
1
1
1
1
1
1
1.453e-05
2.686e-05
9.808e-05
5.534e-05
2.61e-05
1.274e-05
2.463e-05
3.803e-05
5.913e-05
3.033e-05
3.133e-05
3.118e-05
4.454e-05
5.997e-05
1.117e-05
5.419e-07
4.232e-08
1.408e-09
1.811e-10
8.217e-11
1.407e-09
1.015e-07
7.593e-06
0.0001048
0.0007467
0.0006276
0.001078
0.001941
0.003057
0.002809
0.00246
0.0017
0.002264
0.002684
0.003347
0.003711
0.005698
0.005545
0.006736
0.009102
0.004848
0.003252
0.002275
0.002266
0.0009006
0.0006102
0.0002959
0.0002744
0.0004335
0.0007883
0.000611
0.0002561
0.0001596
8.472e-05
0.0001252
0.0001756
0.0005018
0.001701
0.01609
0.1095
0.5887
0.9147
0.9913
0.9995
1
1
1
1
1
1
1
1
1
1
1
1
1
1
1
1
1
1
1
1
1
1
1
1
1
1
1
1
1
1
1
1
1
1
1
1
1
1
1
1
1
1
1
1
1
1
1
1
1
1
1
1
1
1
1
1
1
1
1
1
1
1
1
1
1
1
1
1
1
1
1
1
1
1
1
1
1
1
1
1
1
1
1
1
1
1
1
1
1
1
1
1
1
1
1
1
1.051e-05
2.946e-05
0.0001556
8.886e-05
3.803e-05
3.302e-05
6.989e-05
0.0002326
0.0002378
0.0001234
6.791e-05
5.457e-05
5.085e-05
6.281e-05
2.748e-06
9.967e-08
1.096e-08
1.235e-09
3.576e-10
3.56e-10
9.08e-09
5.404e-07
4.455e-05
0.0004662
0.001986
0.001059
0.001402
0.001814
0.002693
0.002732
0.002599
0.002028
0.003093
0.003754
0.00367
0.003952
0.004896
0.00299
0.001998
0.002131
0.001933
0.002786
0.00486
0.0066
0.002992
0.001199
0.0002557
0.0001312
0.0001054
0.000155
0.0001521
0.0001197
0.0002052
0.0003919
0.001015
0.003098
0.01744
0.08174
0.7178
0.9492
0.9928
0.9993
1
1
1
1
1
1
1
1
1
1
1
1
1
1
1
1
1
1
1
1
1
1
1
1
1
1
1
1
1
1
1
1
1
1
1
1
1
1
1
1
1
1
1
1
1
1
1
1
1
1
1
1
1
1
1
1
1
1
1
1
1
1
1
1
1
1
1
1
1
1
1
1
1
1
1
1
1
1
1
1
1
1
1
1
1
1
1
1
1
1
1
1
1
1
1
1
1
1
2.573e-05
6.895e-05
0.0002615
0.000163
4.124e-05
4.995e-05
0.0001677
0.0008135
0.0007668
0.0003014
0.0001173
7.065e-05
2.968e-05
2.794e-05
1.234e-06
6.417e-08
2.434e-08
1.572e-08
1.112e-08
2.253e-08
4.234e-07
1.174e-05
0.0003945
0.002484
0.007005
0.003383
0.003638
0.003177
0.003227
0.002614
0.002374
0.002423
0.004402
0.005801
0.004788
0.004433
0.004309
0.002367
0.0013
0.0009984
0.0007482
0.001124
0.002006
0.002952
0.001869
0.001158
0.0003345
0.0001277
5.377e-05
4.768e-05
4.847e-05
7.88e-05
0.0003454
0.001888
0.01054
0.07882
0.6714
0.9306
0.9939
0.9994
1
1
1
1
1
1
1
1
1
1
1
1
1
1
1
1
1
1
1
1
1
1
1
1
1
1
1
1
1
1
1
1
1
1
1
1
1
1
1
1
1
1
1
1
1
1
1
1
1
1
1
1
1
1
1
1
1
1
1
1
1
1
1
1
1
1
1
1
1
1
1
1
1
1
1
1
1
1
1
1
1
1
1
1
1
1
1
1
1
1
1
1
1
1
1
1
1
1
1
1
6.01e-05
0.0001414
0.0004996
0.0003281
8.26e-05
0.0001259
0.0003122
0.00142
0.001303
0.0004518
0.0001057
6.769e-05
3.595e-05
2.699e-05
2.221e-06
3.182e-07
3.824e-07
9.466e-07
1.336e-06
2.949e-06
2.392e-05
0.0001866
0.001438
0.004248
0.007549
0.00423
0.004954
0.004134
0.003692
0.002467
0.002768
0.004138
0.008638
0.0128
0.009
0.006271
0.003538
0.001681
0.0007568
0.0004932
0.0003162
0.0004625
0.0007095
0.0009954
0.001137
0.001165
0.0005673
0.0002975
0.0001262
6.684e-05
4.972e-05
0.0002312
0.002441
0.02921
0.5207
0.9296
0.9941
0.9995
1
1
1
1
1
1
1
1
1
1
1
1
1
1
1
1
1
1
1
1
1
1
1
1
1
1
1
1
1
1
1
1
1
1
1
1
1
1
1
1
1
1
1
1
1
1
1
1
1
1
1
1
1
1
1
1
1
1
1
1
1
1
1
1
1
1
1
1
1
1
1
1
1
1
1
1
1
1
1
1
1
1
1
1
1
1
1
1
1
1
1
1
1
1
1
1
1
1
1
1
1
1
0.0002116
0.0004607
0.001205
0.00053
0.0001463
0.0001928
0.0002646
0.001357
0.002034
0.0009409
0.0002831
0.0002853
0.0001712
0.000118
1.816e-05
4.107e-06
5.327e-06
1.846e-05
3.826e-05
0.000144
0.0005154
0.0008786
0.001281
0.001277
0.001185
0.001334
0.003604
0.0031
0.00279
0.001633
0.001442
0.001761
0.004137
0.007817
0.007285
0.005741
0.003386
0.001883
0.001198
0.0008653
0.0004818
0.0004106
0.0003593
0.0003386
0.0004977
0.0008429
0.0009131
0.0009022
0.0006433
0.0003848
0.0007433
0.004925
0.1636
0.8693
0.988
0.9989
0.9999
1
1
1
1
1
1
1
1
1
1
1
1
1
1
1
1
1
1
1
1
1
1
1
1
1
1
1
1
1
1
1
1
1
1
1
1
1
1
1
1
1
1
1
1
1
1
1
1
1
1
1
1
1
1
1
1
1
1
1
1
1
1
1
1
1
1
1
1
1
1
1
1
1
1
1
1
1
1
1
1
1
1
1
1
1
1
1
1
1
1
1
1
1
1
1
1
1
1
1
1
1
1
1
0.0003758
0.0007636
0.001779
0.0006985
0.0002087
0.0001205
8.699e-05
0.0004976
0.001516
0.001627
0.0007298
0.001227
0.000788
0.000532
0.0001597
6.079e-05
7.907e-05
0.0002682
0.00041
0.001122
0.00208
0.001534
0.0009217
0.0005444
0.0004789
0.0007757
0.00384
0.003288
0.003034
0.001886
0.001445
0.001177
0.002138
0.004363
0.00613
0.007147
0.00576
0.004095
0.003336
0.002239
0.0008233
0.0004143
0.0002327
0.0001653
0.0002497
0.0007036
0.001313
0.002617
0.005916
0.01089
0.05933
0.722
0.9777
0.9984
0.9999
1
1
1
1
1
1
1
1
1
1
1
1
1
1
1
1
1
1
1
1
1
1
1
1
1
1
1
1
0.9999
0.9996
0.9992
0.9976
0.9955
0.9926
0.9898
0.9908
0.9912
0.9896
0.9924
0.9953
0.9967
0.9991
0.9997
0.9999
0.9999
1
1
1
1
1
1
1
1
1
1
1
1
1
1
1
1
1
1
1
1
1
1
1
1
1
1
1
1
1
1
1
1
1
1
1
1
1
1
1
1
1
1
1
1
1
1
1
1
1
1
1
1
1
1
1
1
1
1
1
1
0.0006113
0.001128
0.00262
0.0006646
0.0001968
4.411e-05
2.313e-05
0.0001617
0.001532
0.004149
0.003816
0.006455
0.003801
0.002472
0.001076
0.0006811
0.0004856
0.001098
0.001093
0.002267
0.002956
0.001605
0.0008647
0.0004371
0.0006972
0.00156
0.007792
0.006639
0.00511
0.002891
0.001954
0.001014
0.00118
0.002167
0.004272
0.008087
0.01121
0.008386
0.007581
0.005014
0.001782
0.0007631
0.0003178
0.0001968
0.0003344
0.001047
0.002757
0.009356
0.05545
0.4185
0.915
0.9948
0.9998
1
1
1
1
1
1
1
1
1
1
1
1
1
1
1
1
1
1
1
1
1
1
1
1
1
0.9999
0.9996
0.9987
0.9954
0.9922
0.9832
0.9686
0.9127
0.7422
0.4589
0.1738
0.07251
0.04923
0.04008
0.05589
0.1118
0.2453
0.3615
0.7767
0.9337
0.982
0.9934
0.9981
0.9993
0.9998
1
1
1
1
1
1
1
1
1
1
1
1
1
1
1
1
1
1
1
1
1
1
1
1
1
1
1
1
1
1
1
1
1
1
1
1
1
1
1
1
1
1
1
1
1
1
1
1
1
1
1
1
1
1
1
1
1
0.0005274
0.0008072
0.002132
0.0007627
0.0005205
8.255e-05
3.777e-05
0.0001046
0.0009681
0.001941
0.00304
0.005381
0.005078
0.003519
0.001788
0.001621
0.001148
0.001913
0.002634
0.003531
0.003288
0.0019
0.001252
0.0007692
0.0008365
0.001329
0.004995
0.005275
0.005986
0.004813
0.003386
0.001276
0.001014
0.001231
0.002776
0.006639
0.01141
0.007607
0.006666
0.004716
0.002008
0.0009527
0.0004969
0.0005452
0.001237
0.005115
0.0196
0.1364
0.7935
0.9761
0.9987
0.9999
1
1
1
1
1
1
1
1
1
1
1
1
1
1
1
1
1
1
1
1
1
1
1
0.9999
0.9995
0.9964
0.9824
0.9394
0.7948
0.335
0.124
0.05249
0.01977
0.007357
0.002906
0.002031
0.001959
0.001778
0.00118
0.0008828
0.001608
0.002933
0.003991
0.005144
0.009305
0.01783
0.06014
0.1945
0.5383
0.8361
0.9606
0.993
0.9986
0.9995
0.9999
1
1
1
1
1
1
1
1
1
1
1
1
1
1
1
1
1
1
1
1
1
1
1
1
1
1
1
1
1
1
1
1
1
1
1
1
1
1
1
1
1
1
1
1
1
1
1
1
1
1
1
0.9999
0.9997
0.0004959
0.0005334
0.001512
0.0008638
0.001119
0.0001501
8.763e-05
9.479e-05
0.0004693
0.0009179
0.001985
0.003209
0.00466
0.004205
0.001738
0.001418
0.001207
0.002247
0.005198
0.006445
0.005013
0.003245
0.002816
0.002223
0.002086
0.001988
0.004006
0.00432
0.005642
0.006025
0.004531
0.001468
0.001179
0.001141
0.002396
0.00545
0.009874
0.006542
0.005738
0.00387
0.001932
0.001312
0.001124
0.00169
0.006172
0.03755
0.4164
0.9169
0.9946
0.9997
1
1
1
1
1
1
1
1
1
1
1
1
1
1
1
1
1
1
1
1
1
1
1
0.9995
0.9954
0.979
0.9064
0.6393
0.1517
0.04119
0.007318
0.003019
0.002048
0.00103
0.0003569
0.0001647
5.783e-05
5.398e-05
0.0001053
0.0001406
0.0001121
9.819e-05
0.0001934
0.000334
0.0003374
0.0003949
0.000391
0.0004523
0.00111
0.002664
0.003877
0.01028
0.04117
0.2151
0.7053
0.9102
0.9851
0.9971
0.9992
0.9996
0.9999
1
1
1
1
1
1
1
1
1
1
1
1
1
1
1
1
1
1
1
1
1
1
1
1
1
1
1
1
1
1
1
1
1
1
1
1
1
1
1
1
1
1
1
0.9999
0.9995
0.9972
0.9896
0.9734
0.9316
0.0006211
0.0003915
0.001198
0.000695
0.001222
0.0001955
0.0001386
7.327e-05
0.0001861
0.0003949
0.001024
0.002084
0.004861
0.005647
0.001771
0.001178
0.001381
0.003494
0.004221
0.002722
0.001255
0.001161
0.002606
0.005902
0.005513
0.002831
0.002623
0.003114
0.004727
0.005688
0.005186
0.002534
0.00229
0.0016
0.001862
0.002106
0.002503
0.00177
0.002438
0.002386
0.001837
0.001974
0.003127
0.009101
0.08354
0.7023
0.9702
0.9985
0.9999
1
1
1
1
1
1
1
1
1
1
1
1
1
1
1
1
1
1
1
1
1
0.9999
0.9991
0.9897
0.9193
0.6494
0.1628
0.03225
0.006165
0.001444
0.0006132
0.0001863
0.0001314
0.0001179
8.423e-05
2.928e-05
2.131e-05
1.111e-05
1.357e-05
2.651e-05
4.386e-05
4.165e-05
3.935e-05
6.865e-05
0.0001054
6.857e-05
5.157e-05
3.43e-05
3.554e-05
6.847e-05
0.0001079
0.0001052
0.0001948
0.0006052
0.002734
0.01246
0.05889
0.2576
0.6603
0.9198
0.9891
0.9996
1
1
1
1
1
1
1
1
1
1
1
1
1
1
1
1
1
1
1
1
1
1
1
1
1
1
1
1
1
1
1
1
1
1
1
1
1
1
1
0.9998
0.9991
0.9971
0.989
0.9536
0.8063
0.5308
0.267
0.1999
0.02986
0.0006932
0.0003394
0.001308
0.0007088
0.001071
0.0002081
0.0001383
7.751e-05
0.0002234
0.0004112
0.0005995
0.001062
0.003252
0.005164
0.001419
0.0008831
0.0008437
0.002042
0.002096
0.001713
0.0005409
0.0005221
0.001242
0.005819
0.006679
0.003697
0.002993
0.003247
0.004968
0.005669
0.005767
0.004497
0.005002
0.003644
0.002703
0.001471
0.0009484
0.0006673
0.001259
0.002129
0.003623
0.006712
0.02647
0.1792
0.869
0.9884
0.9995
1
1
1
1
1
1
1
1
1
1
1
1
1
1
1
1
1
1
1
1
1
0.9997
0.9973
0.9707
0.8597
0.2219
0.0301
0.007856
0.003434
0.001072
0.0003193
0.0001043
5.004e-05
2.89e-05
3.675e-05
4.491e-05
5.908e-05
3.619e-05
4.352e-05
2.72e-05
3.883e-05
7.033e-05
0.0001311
0.0001173
0.0001091
0.000174
0.0001448
7.203e-05
6.273e-05
3.617e-05
2.483e-05
2.74e-05
2.45e-05