/*--------------------------------*- C++ -*----------------------------------*\
| =========                 |                                                 |
| \\      /  F ield         | OpenFOAM: The Open Source CFD Toolbox           |
|  \\    /   O peration     | Version:  5.x                                   |
|   \\  /    A nd           | Web:      www.OpenFOAM.org                      |
|    \\/     M anipulation  |                                                 |
\*---------------------------------------------------------------------------*/
FoamFile
{
    version     2.0;
    format      ascii;
    class       volScalarField;
    location    "195";
    object      gamma;
}
// * * * * * * * * * * * * * * * * * * * * * * * * * * * * * * * * * * * * * //

dimensions      [0 0 0 0 0 0 0];

internalField   nonuniform List<scalar> 
86400
(
7.835e-09
1.187e-08
2.4e-08
7.186e-08
2.364e-07
5.182e-07
6.3e-07
8.024e-07
1.094e-06
1.126e-06
1.102e-06
6.679e-07
3.382e-07
1.144e-07
1.814e-07
5.822e-07
5.963e-06
1.741e-05
4.3e-05
2.605e-05
2.243e-05
2.572e-05
5.408e-05
5.527e-05
7.111e-05
0.0001585
0.0002655
0.0005356
0.0008152
0.001116
0.001022
0.0009225
0.0007883
0.0006651
0.0006195
0.000753
0.0007467
0.0007346
0.0006011
0.0006266
0.0006349
0.0007397
0.0006134
0.000415
0.000364
0.0004143
0.0006164
0.0007918
0.0009327
0.0008403
0.0008667
0.0009449
0.001024
0.001073
0.001116
0.001336
0.001707
0.002032
0.002234
0.002257
0.001935
0.001955
0.00178
0.00179
0.002146
0.002752
0.0033
0.003466
0.0026
0.002228
0.002641
0.003657
0.005493
0.005098
0.004282
0.003105
0.002019
0.001677
0.00186
0.002067
0.002781
0.00308
0.002685
0.00222
0.002005
0.001719
0.001857
0.001944
0.002262
0.002537
0.002303
0.002564
0.002928
0.004104
0.004776
0.005407
0.004809
0.004955
0.005137
0.004868
0.004283
0.00431
0.003708
0.003116
0.00188
0.001752
0.001928
0.003116
0.003221
0.003016
0.002076
0.00174
0.001417
0.001035
0.0006301
0.0004244
0.0003485
0.0003218
0.0002837
0.000279
0.0003365
0.0004092
0.000554
0.0006449
0.0005855
0.0005047
0.0004227
0.0003713
0.0003234
0.0002647
0.000168
0.0001232
9.992e-05
8.421e-05
7.482e-05
8.026e-05
0.0001055
0.00015
6.689e-05
1.155e-05
2.216e-06
1.823e-06
2.81e-06
3.589e-06
1.675e-06
2.29e-07
2.146e-08
3.058e-09
1.376e-09
7.377e-10
1.634e-09
2.576e-09
1.119e-08
1.472e-08
6.058e-08
1.894e-07
6.961e-07
3.256e-06
0.04347
0.9993
1.177e-08
1.507e-08
2.77e-08
6.197e-08
1.651e-07
3.031e-07
3.328e-07
3.858e-07
4.315e-07
2.644e-07
2.289e-07
1.943e-07
1.847e-07
1.968e-07
4.198e-07
1.11e-06
5.148e-06
1.679e-05
4.643e-05
4.953e-05
5.779e-05
9.393e-05
0.0001901
0.0002473
0.0003244
0.0004186
0.0003881
0.0004147
0.0004388
0.0004426
0.0003742
0.0003936
0.0004227
0.0004665
0.0005399
0.0007271
0.0007879
0.0009217
0.0009446
0.001058
0.001043
0.001095
0.0009383
0.0007117
0.0006255
0.0007337
0.0009863
0.001345
0.001801
0.001993
0.002353
0.002906
0.003496
0.004009
0.004169
0.00358
0.002874
0.002392
0.002081
0.002029
0.001997
0.002127
0.001875
0.001907
0.002355
0.003724
0.004789
0.005352
0.004402
0.004187
0.005104
0.005632
0.005029
0.003355
0.002241
0.001874
0.002305
0.003105
0.003752
0.003902
0.004549
0.004951
0.005397
0.005355
0.005303
0.004854
0.005389
0.005918
0.007801
0.01027
0.01136
0.01305
0.01338
0.01267
0.0112
0.01022
0.008791
0.007302
0.005315
0.004395
0.004079
0.005173
0.007285
0.00648
0.002916
0.00196
0.001814
0.002273
0.003102
0.003363
0.002194
0.001972
0.002112
0.002224
0.001887
0.001326
0.0009315
0.0007532
0.0006434
0.000659
0.0007171
0.0006868
0.0006806
0.0006498
0.0005991
0.0006831
0.0007389
0.0007979
0.0007227
0.0005559
0.0003297
0.000247
0.000206
0.0002422
0.0002919
0.0002832
0.0002738
0.0002475
0.0001078
2.693e-05
1.276e-05
7.977e-06
5.225e-06
2.771e-06
7.997e-07
1.028e-07
2.112e-08
1.04e-08
1.569e-08
1.817e-08
2.77e-08
4.315e-08
1.807e-07
4.942e-07
3.385e-06
3.779e-05
0.0005977
0.06288
0.9806
1
2.527e-08
2.997e-08
4.325e-08
6.638e-08
1.406e-07
2.073e-07
2.021e-07
2.202e-07
2.031e-07
1.295e-07
1.312e-07
1.877e-07
2.754e-07
4.967e-07
1.138e-06
4.15e-06
1.653e-05
6.807e-05
0.0001437
0.0001832
0.0001427
0.0002185
0.0003304
0.0004429
0.0006703
0.001058
0.001117
0.001143
0.001131
0.0008946
0.0007632
0.0009522
0.001026
0.0009913
0.0008598
0.0008502
0.000772
0.0008987
0.000915
0.0008549
0.0006264
0.0005634
0.0004755
0.0004895
0.0006391
0.001029
0.001596
0.002558
0.004081
0.003984
0.003097
0.002304
0.00179
0.001646
0.001968
0.00178
0.001553
0.001335
0.001236
0.001263
0.001447
0.001715
0.001713
0.002183
0.002446
0.002905
0.003284
0.003545
0.003159
0.003254
0.003727
0.003085
0.002272
0.001885
0.00188
0.003113
0.005977
0.008897
0.009593
0.009744
0.01039
0.01139
0.01305
0.01406
0.01588
0.0156
0.01615
0.01634
0.01333
0.009497
0.005809
0.003686
0.00331
0.00435
0.005325
0.006374
0.00706
0.005008
0.003297
0.00275
0.002605
0.003214
0.004633
0.003602
0.00168
0.001364
0.001749
0.002829
0.005109
0.005194
0.003735
0.004267
0.00532
0.005873
0.004526
0.002924
0.001663
0.001129
0.0008686
0.0008861
0.0008286
0.0008333
0.0007618
0.0006431
0.0005354
0.0005822
0.0005878
0.0006288
0.0005844
0.0004713
0.000319
0.0002583
0.000222
0.0003011
0.0003958
0.0003336
0.0002636
0.0001838
8.701e-05
2.776e-05
1.515e-05
7.342e-06
3.84e-06
1.889e-06
7.472e-07
1.815e-07
5.879e-08
4.743e-08
8.971e-08
1.962e-07
5.242e-07
1.063e-06
3.46e-06
1.353e-05
0.0001512
0.004524
0.2306
0.9827
0.9999
1
6.326e-08
6.497e-08
7.124e-08
7.665e-08
1.133e-07
1.156e-07
9.055e-08
8.906e-08
8.825e-08
7.96e-08
1.23e-07
1.228e-07
1.247e-07
2.947e-07
1.059e-06
3.25e-06
1.299e-05
3.146e-05
2.001e-05
1.508e-05
9.879e-06
1.053e-05
2.122e-05
4.134e-05
8.936e-05
0.0002221
0.0003823
0.0005091
0.0006409
0.0006252
0.0005913
0.0009591
0.001344
0.001564
0.001312
0.001143
0.0009512
0.001157
0.001225
0.001056
0.0007229
0.0006967
0.0007892
0.001223
0.00151
0.001705
0.00142
0.001452
0.001837
0.001752
0.00114
0.0008204
0.0007524
0.0007194
0.0009278
0.0007641
0.0005289
0.0004292
0.0005248
0.0007607
0.001108
0.00156
0.001855
0.002415
0.002503
0.002559
0.002369
0.002217
0.001912
0.002859
0.004553
0.004047
0.003548
0.003596
0.003096
0.005634
0.009907
0.01157
0.009094
0.009691
0.007957
0.006598
0.005678
0.004489
0.003919
0.004207
0.004428
0.00466
0.004321
0.004123
0.003637
0.002933
0.003241
0.004318
0.005093
0.00569
0.006678
0.004123
0.002528
0.002008
0.002001
0.002672
0.004467
0.003869
0.001784
0.0009546
0.0008259
0.001258
0.002035
0.002223
0.00168
0.001687
0.001539
0.002382
0.002658
0.002826
0.002227
0.002215
0.001717
0.001856
0.001544
0.001487
0.001147
0.0008906
0.0007299
0.0008149
0.0009481
0.001094
0.001121
0.0009663
0.0006933
0.0006058
0.0005936
0.0007129
0.0007051
0.0004002
0.0001775
5.174e-05
2.581e-05
9.965e-06
6.101e-06
2.933e-06
1.587e-06
8.51e-07
5.557e-07
2.928e-07
2.279e-07
5.856e-07
2.76e-06
6.909e-06
1.588e-05
3.661e-05
0.0001297
0.001147
0.03251
0.8538
0.9952
1
1
1
2.113e-07
1.659e-07
1.399e-07
1.196e-07
1.109e-07
8.934e-08
5.315e-08
4.865e-08
6.057e-08
7.08e-08
1.446e-07
9.179e-08
2.936e-08
5.286e-08
3.235e-07
1.968e-06
2.439e-05
2.459e-05
5.253e-06
1.733e-06
1.469e-06
1.722e-06
4.158e-06
5.339e-06
1.241e-05
5.623e-05
0.0003108
0.001198
0.002845
0.001922
0.000915
0.0007864
0.0006438
0.0005494
0.0004894
0.000418
0.0003017
0.0004775
0.0008819
0.001255
0.0007627
0.0003575
0.0001493
0.0001247
0.000102
0.0001006
9.943e-05
0.0001718
0.000437
0.000815
0.0006792
0.0004068
0.0004945
0.0006429
0.0009359
0.0007106
0.0004017
0.0003567
0.0005193
0.001018
0.001966
0.003498
0.005242
0.006851
0.005472
0.003232
0.00221
0.001563
0.001048
0.00119
0.001853
0.001679
0.002365
0.004
0.004298
0.004436
0.00445
0.002579
0.001242
0.0009512
0.0004117
0.0001617
0.000113
0.0001275
0.0002428
0.0007536
0.001621
0.001849
0.001739
0.001692
0.001288
0.001234
0.001763
0.002598
0.004166
0.00467
0.005163
0.003147
0.002226
0.001388
0.0006355
0.0003895
0.0005928
0.0008496
0.001067
0.001356
0.001451
0.001892
0.002313
0.00211
0.001265
0.0009999
0.000728
0.001383
0.001367
0.001348
0.0009555
0.0008987
0.0005615
0.0007083
0.0006492
0.0006682
0.0005643
0.0004278
0.0003489
0.0003499
0.0003612
0.0004528
0.0005726
0.0006363
0.0006331
0.0006163
0.0005733
0.0004938
0.000322
0.0001161
3.288e-05
9.808e-06
4.842e-06
2.012e-06
1.429e-06
9.042e-07
8.582e-07
1.044e-06
1.46e-06
1.647e-06
1.929e-06
3.654e-06
1.504e-05
5.506e-05
0.000236
0.001254
0.01233
0.3483
0.9654
0.9993
1
1
1
1
4.233e-07
2.832e-07
2.208e-07
1.792e-07
1.146e-07
7.223e-08
4.758e-08
4.559e-08
7.869e-08
1.499e-07
4.497e-07
1.651e-07
2.511e-08
1.685e-08
2.037e-07
9.619e-07
1.163e-05
7.313e-06
1.511e-06
5.036e-07
1.179e-06
1.927e-06
4.9e-06
2.344e-06
2.285e-06
5.053e-06
1.995e-05
0.0001379
0.0006705
0.000553
0.0002298
0.0001437
0.0001084
0.0001038
0.0001627
0.0001812
9.353e-05
9.298e-05
0.0001349
9.965e-05
2.733e-05
8.863e-06
1.634e-06
6.07e-07
3.566e-07
1.675e-07
6.246e-08
1.083e-07
4.914e-07
2.176e-06
4.151e-06
7.189e-06
1.918e-05
8.657e-05
0.0002246
0.000176
6.49e-05
4.531e-05
7.307e-05
0.0002621
0.0007928
0.001662
0.001984
0.002551
0.002251
0.001411
0.001702
0.001493
0.0009733
0.0009561
0.001622
0.001475
0.002227
0.002565
0.001112
0.0002904
5.933e-05
1.94e-05
1.384e-05
2.31e-05
2.446e-05
1.78e-05
1.349e-05
2.213e-05
7.48e-05
0.000439
0.001724
0.002453
0.002902
0.003098
0.002973
0.002
0.001818
0.001576
0.001381
0.001403
0.001243
0.0009969
0.001125
0.0009794
0.0005569
0.0003185
0.0003372
0.000491
0.0009075
0.001292
0.0008826
0.001013
0.001101
0.0009755
0.0003904
0.0001944
9.41e-05
0.0002011
0.0003126
0.000504
0.000483
0.0004329
0.0002997
0.0003659
0.0003055
0.0002835
0.0002338
0.0001774
0.0001526
0.000153
0.0001522
0.000195
0.0002478
0.0002589
0.0002055
0.0001586
0.0001189
7.842e-05
5.941e-05
2.943e-05
1.786e-05
9.172e-06
5.875e-06
2.48e-06
1.963e-06
1.585e-06
1.61e-06
2.232e-06
3.984e-06
6.984e-06
1.834e-05
7.121e-05
0.0004326
0.002366
0.01686
0.2036
0.9333
0.997
1
1
1
1
1
1
6.129e-07
3.218e-07
2.073e-07
1.332e-07
1.022e-07
8.418e-08
8.557e-08
1.073e-07
2.771e-07
5.713e-07
1.349e-06
4.25e-07
2.388e-08
9.762e-09
7.27e-08
5.584e-07
1.621e-05
4.036e-05
1.298e-05
6.531e-06
2.422e-05
2.864e-05
4.603e-05
1.054e-05
4.254e-06
5.646e-06
1.766e-05
8.5e-05
0.0004875
0.0004786
0.0002345
8.204e-05
5.564e-05
6.671e-05
0.0001296
0.0001441
4.759e-05
2.833e-05
4.301e-05
2.745e-05
3.791e-06
4.297e-07
1.878e-08
2.1e-09
8.068e-10
1.361e-10
4.094e-11
1.122e-10
1.542e-09
1.886e-08
9.385e-08
1.202e-07
1.545e-07
3.707e-07
4.504e-07
6.38e-07
9.83e-07
3.088e-06
1.764e-05
0.0001264
0.0003978
0.0009712
0.001434
0.002717
0.002917
0.001453
0.001701
0.001399
0.0009777
0.0006838
0.000904
0.00048
0.0004878
0.0004153
0.0001828
4.558e-05
8.398e-06
2.958e-06
1.629e-06
2.704e-06
4.338e-06
6.293e-06
9.207e-06
2.088e-05
6.239e-05
0.0001451
0.0003062
0.0003233
0.0006015
0.001674
0.002255
0.001613
0.000865
0.0004728
0.0002888
0.000176
7.015e-05
2.987e-05
1.911e-05
1.345e-05
1.792e-05
2.244e-05
5.368e-05
0.0002266
0.001021
0.001579
0.001189
0.001185
0.001114
0.0006994
0.000285
9.22e-05
3.898e-05
8.136e-05
0.0002086
0.0003324
0.0003092
0.000213
0.0001354
0.0001548
0.0001525
0.0001635
0.0001606
0.0001299
8.608e-05
5.134e-05
2.98e-05
2.555e-05
2.93e-05
3.885e-05
3.855e-05
3.386e-05
2.187e-05
9.722e-06
6.712e-06
7.135e-06
9.602e-06
1.172e-05
1.425e-05
7.672e-06
6.416e-06
7.957e-06
1.583e-05
4.167e-05
0.000171
0.0006861
0.00309
0.01403
0.08918
0.738
0.9673
0.9979
1
1
1
1
1
1
1
1
1.253e-06
4.254e-07
2.001e-07
1.172e-07
1.093e-07
1.153e-07
2.214e-07
4.242e-07
7.135e-07
5.258e-07
7.988e-07
2.036e-07
1.187e-08
1.001e-08
9.581e-08
1.036e-06
3.732e-05
0.0002207
0.000217
0.0003563
0.0008308
0.0007496
0.0007496
0.000179
5.302e-05
1.736e-05
1.176e-05
2.258e-05
9.192e-05
0.0001392
0.0001182
8.4e-05
6.487e-05
0.0001032
0.0002371
0.0003105
0.0001038
6.292e-05
7.464e-05
1.513e-05
8.762e-07
2.663e-08
6.474e-10
4.765e-11
3.887e-11
7.078e-12
2.13e-12
3.521e-12
1.142e-11
1.077e-10
7.373e-10
1.061e-09
2.05e-09
6.61e-09
7.098e-09
8.746e-09
2.772e-08
2.505e-07
3.714e-06
6.203e-05
0.0002869
0.0008407
0.001502
0.004055
0.004401
0.002209
0.001745
0.001071
0.0004608
0.0001728
7.903e-05
2.656e-05
1.617e-05
2.055e-05
2.153e-05
1.271e-05
2.672e-06
1.04e-06
3.806e-07
4.312e-07
6.93e-07
2.142e-06
8.828e-06
3.547e-05
9.098e-05
0.0001138
0.0001606
0.0001639
0.0002898
0.0009984
0.001948
0.001612
0.0005286
0.0003237
0.0002313
0.0001577
7.388e-05
2.322e-05
4.969e-06
2.202e-06
5.168e-06
1.663e-05
5.671e-05
0.0001091
0.0001511
0.0001149
0.0001104
0.000186
0.0002671
0.0001806
5.291e-05
7.325e-06
3.95e-06
1.315e-05
6.475e-05
0.0001258
0.0001423
5.391e-05
2.562e-05
2.521e-05
2.469e-05
2.393e-05
2.42e-05
2.337e-05
1.934e-05
1.463e-05
8.921e-06
6.831e-06
7.009e-06
1e-05
1.377e-05
1.693e-05
1.054e-05
3.877e-06
2.531e-06
4.408e-06
1.749e-05
6.185e-05
0.0001343
0.0001433
0.0002475
0.0006147
0.002383
0.006841
0.02611
0.2539
0.8463
0.978
0.9976
0.9998
1
1
1
1
1
1
1
1
1
1
2.717e-06
5.107e-07
1.673e-07
8.336e-08
9.272e-08
1.518e-07
6.948e-07
8.286e-07
5.625e-07
2.321e-07
1.318e-07
4.878e-08
1.461e-08
3.653e-08
4.445e-07
3.581e-06
1.962e-05
5.749e-05
5.692e-05
6.973e-05
0.0002415
0.0007684
0.001788
0.001659
0.001189
0.0002945
7.256e-05
3.641e-05
5.721e-05
0.0001013
0.0001836
0.0001665
0.0001023
0.0001375
0.0002147
0.0002555
0.0001067
7.781e-05
0.0001285
7.554e-06
1.281e-07
1.21e-09
1.943e-11
2.808e-12
1.879e-11
1.243e-11
5.93e-12
5.615e-12
5.639e-12
9.44e-12
7.008e-11
1.816e-10
7.238e-10
1.283e-09
6.863e-10
2.89e-10
7.52e-10
1.303e-08
5.122e-07
2.57e-05
0.0002561
0.0009008
0.001397
0.00274
0.001945
0.0005827
0.000204
7.821e-05
1.321e-05
3.45e-06
1.046e-06
3.619e-07
1.927e-07
4.049e-07
5.597e-07
2.113e-06
2.651e-06
2.932e-06
1.339e-06
1.449e-06
4.731e-06
6.581e-05
0.00175
0.01663
0.04423
0.02797
0.01738
0.01864
0.02482
0.03899
0.04338
0.03613
0.02286
0.0227
0.01866
0.02832
0.01859
0.002412
0.000141
7.366e-06
6.587e-06
1.419e-05
7.715e-05
0.0001251
6.705e-05
2.363e-05
3.005e-05
3.622e-05
4.118e-05
1.828e-05
3.392e-06
5.925e-07
8.524e-07
1.581e-06
5.942e-06
9.584e-06
1.182e-05
5.137e-06
3.279e-06
2.271e-06
1.796e-06
1.534e-06
1.53e-06
1.792e-06
2.178e-06
2.574e-06
1.897e-06
1.387e-06
1.388e-06
3.006e-06
1.116e-05
4.981e-05
7.909e-05
5.499e-05
4.755e-05
0.00011
0.000649
0.004155
0.01031
0.01549
0.04418
0.2921
0.8667
0.977
0.9957
0.9994
0.9999
1
1
1
1
1
1
1
1
1
1
1
1
1
2.27e-06
4.084e-07
1.724e-07
1.135e-07
1.872e-07
3.948e-07
9.71e-07
4.2e-07
1.599e-07
7.543e-08
3.31e-08
3.952e-08
5.285e-08
2.842e-07
3.906e-06
1.528e-05
1.445e-05
5.488e-06
1.644e-06
8.87e-07
3.35e-06
2.707e-05
0.0002633
0.00128
0.002161
0.0005746
9.095e-05
3.557e-05
3.624e-05
0.0001225
0.0003774
0.0003549
0.0001474
0.0001124
7.891e-05
0.0001191
0.0001688
0.0002653
0.0003131
8.324e-06
6.935e-08
3.763e-10
9.802e-12
4.175e-12
9.084e-11
2.188e-10
9.382e-11
2.372e-11
2.386e-12
7.918e-13
7.217e-12
6.346e-11
9.999e-10
3.14e-09
5.661e-10
5.489e-11
7.49e-11
1.499e-09
2.271e-07
3.062e-05
0.0002827
0.0006503
0.0002792
0.0001729
4.377e-05
8.783e-06
2.673e-06
1.177e-06
3.337e-07
2.206e-07
1.486e-07
1.367e-07
2.164e-07
2.072e-06
6.551e-06
4.672e-05
0.0002661
0.002102
0.003574
0.008825
0.03765
0.3624
0.9192
0.9904
0.9977
0.999
0.9993
0.9993
0.9989
0.9987
0.9986
0.9988
0.999
0.9991
0.9989
0.999
0.9984
0.9935
0.9378
0.2085
0.01262
0.01072
0.0197
0.008235
0.0007287
6.547e-05
4.771e-05
3.707e-05
2.271e-05
5.148e-06
4.984e-07
1.394e-07
4.565e-07
1.083e-06
5.928e-06
1.201e-05
2.353e-05
1.702e-05
1.587e-05
8.69e-06
6.093e-06
4.954e-06
5.043e-06
7.838e-06
1.661e-05
4.067e-05
5.071e-05
4.173e-05
3.958e-05
7.712e-05
0.0004033
0.003431
0.009066
0.008228
0.008609
0.02334
0.3281
0.902
0.9802
0.9945
0.9984
0.9996
0.9999
1
1
1
1
1
1
1
1
1
1
1
1
1
1
1
1
1
7.969e-07
1.714e-07
1.204e-07
1.78e-07
5.749e-07
1.358e-06
8.415e-07
1.665e-07
4.006e-08
2.5e-08
1.98e-08
5.915e-08
2.994e-07
3.471e-06
1.711e-05
3.568e-05
6.361e-06
2.59e-07
2.358e-08
1.08e-08
7.628e-08
1.304e-06
5.876e-05
0.0007208
0.002294
0.0008973
0.0003423
0.0001455
0.0001094
0.00027
0.0004691
0.0001936
3.252e-05
7.5e-06
4.649e-06
7.753e-06
3.116e-05
0.0001376
0.0002401
1.575e-05
2.266e-07
1.601e-09
6.991e-11
5.052e-11
6.297e-10
1.509e-09
8.485e-10
1.377e-10
7.76e-12
1.773e-12
1.36e-11
2.462e-10
1.247e-08
5.946e-08
9.197e-09
3.98e-10
3.07e-10
5.065e-09
7.16e-07
9.96e-05
0.0004219
0.0002396
3.574e-05
1.148e-05
3.609e-06
8.569e-07
2.269e-07
9.257e-08
5.782e-08
1.049e-07
4.434e-07
3.113e-06
2.129e-05
0.0002734
0.001504
0.01824
0.3806
0.9417
0.9844
0.9959
0.9983
0.9994
0.9999
1
1
1
1
1
1
1
1
1
1
1
1
1
1
1
1
0.9998
0.9983
0.9967
0.9959
0.987
0.8768
0.08761
0.01583
0.003872
0.0006946
4.1e-05
6.602e-06
2.911e-06
1.712e-05
5.495e-05
0.0001582
0.0002189
0.0005694
0.000537
0.0006173
0.0003078
0.0001549
7.96e-05
5.903e-05
0.0001034
0.0004511
0.002864
0.007815
0.008597
0.009517
0.02191
0.2936
0.912
0.9872
0.9958
0.9981
0.999
0.9997
0.9999
1
1
1
1
1
1
1
1
1
1
1
1
1
1
1
1
1
1
1
1
1
1
1.637e-07
6.166e-08
8.212e-08
1.837e-07
4.357e-07
1.023e-06
3.305e-07
9.271e-08
3.644e-08
1.04e-07
1.185e-07
8.66e-07
6.339e-06
2.761e-05
5.235e-05
6.219e-05
4.327e-06
9.594e-08
5.107e-09
1.481e-09
1.389e-08
1.12e-06
0.0001276
0.001295
0.002803
0.0008325
0.0004102
0.0002281
0.0002517
0.0005463
0.0005955
0.0001466
1.168e-05
1.977e-06
7.301e-07
1.296e-06
7.675e-06
3.244e-05
4.494e-05
5.122e-06
1.317e-07
4.106e-09
4.725e-10
4.497e-10
1.514e-09
1.64e-09
7.667e-10
6.953e-11
2.644e-12
7.077e-13
5.541e-12
3.745e-10
8.909e-08
1.889e-06
5.722e-07
1.92e-08
5.315e-09
4.12e-08
2.084e-06
8.98e-05
0.0001297
2.957e-05
1.613e-06
2.483e-07
7.659e-08
4.075e-08
4.277e-08
1.471e-07
1.079e-06
8.311e-06
0.0002069
0.002782
0.05546
0.6891
0.9435
0.9921
0.9992
1
1
1
1
1
1
1
1
1
1
1
1
1
1
1
1
1
1
1
1
1
1
1
1
1
1
1
1
0.9995
0.9977
0.9886
0.9209
0.1726
0.003232
0.000589
0.001637
0.004767
0.01426
0.01217
0.01742
0.02013
0.01887
0.01363
0.009446
0.006652
0.007437
0.02616
0.2588
0.9032
0.9851
0.9952
0.9979
0.9989
0.9996
0.9999
1
1
1
1
1
1
1
1
1
1
1
1
1
1
1
1
1
1
1
1
1
1
1
1
1
1
1
1
8.027e-08
6.512e-08
9.815e-08
2.323e-07
5.015e-07
9.676e-07
2.492e-07
1.008e-07
1.054e-07
2.444e-07
5.56e-07
5.178e-06
2.526e-05
5.919e-05
0.0001053
7.326e-05
9.04e-06
2.445e-07
1.235e-08
2.304e-09
1.621e-08
1.06e-06
0.0001263
0.001225
0.003552
0.001816
0.001591
0.001223
0.001328
0.001714
0.001274
0.0003068
4.489e-05
8.561e-06
2.337e-06
2.586e-06
1.112e-05
2.955e-05
3.131e-05
7.228e-06
7.214e-07
5.227e-08
1.524e-08
1.041e-08
7.427e-09
6.757e-09
2.299e-09
6.453e-10
7.656e-11
5.143e-11
2.263e-10
5.227e-09
2.586e-07
1.86e-06
7.565e-07
7.13e-08
4.032e-08
2.303e-07
9.148e-06
5.373e-05
1.331e-05
1.323e-06
6.759e-08
3.446e-08
9.116e-08
3.73e-07
2.103e-06
4.357e-05
0.001232
0.03947
0.7917
0.9774
0.9968
0.9995
1
1
1
1
1
1
1
1
1
1
1
1
1
1
1
1
1
1
1
1
1
1
1
1
1
1
1
1
1
1
1
1
1
1
1
0.9997
0.9988
0.9983
0.9987
0.9987
0.9988
0.9978
0.9975
0.9978
0.998
0.9983
0.9981
0.9976
0.9976
0.9985
0.9994
0.9999
1
1
1
1
1
1
1
1
1
1
1
1
1
1
1
1
1
1
1
1
1
1
1
1
1
1
1
1
1
1
1
1
1
1
1.094e-07
1.293e-07
2.619e-07
4.066e-07
7.529e-07
1.006e-06
4.744e-07
3.079e-07
8.927e-07
1.14e-06
2.625e-06
1.116e-05
3.71e-05
5.034e-05
7.585e-05
7.579e-05
4.223e-05
2.162e-06
1.618e-07
2.27e-08
1.006e-07
3.211e-06
0.0001899
0.0009716
0.001727
0.001284
0.001838
0.002435
0.003206
0.003527
0.002587
0.001143
0.0004143
0.0001274
3.192e-05
2.144e-05
3.634e-05
5.876e-05
6.421e-05
3.797e-05
9.298e-06
1.863e-06
9.973e-07
6.66e-07
2.186e-07
2.304e-07
1.308e-07
6.38e-08
1.205e-08
6.25e-09
6.044e-09
2.962e-08
1.741e-07
4.173e-07
1.954e-07
6.848e-08
1.31e-07
1.471e-06
2.329e-05
3.613e-05
4.551e-06
1.334e-06
5.554e-07
1.955e-06
3.382e-05
0.0007747
0.008529
0.4951
0.9534
0.9949
0.9997
1
1
1
1
1
1
1
1
1
1
1
1
1
1
1
1
1
1
1
1
1
1
1
1
1
1
1
1
1
1
1
1
1
1
1
1
1
1
1
1
1
1
1
1
1
1
1
1
1
1
1
1
1
1
1
1
1
1
1
1
1
1
1
1
1
1
1
1
1
1
1
1
1
1
1
1
1
1
1
1
1
1
1
1
1
1
1
1
1
4.984e-07
6.223e-07
1.459e-06
7.041e-07
1.161e-06
8.648e-07
9.946e-07
1.591e-06
5.759e-06
2.877e-06
5.766e-06
4.645e-06
1.659e-05
1.425e-05
2.806e-05
1.657e-05
4.397e-06
1.04e-07
5.093e-09
7.41e-10
3.545e-09
1.231e-07
1.01e-05
6.168e-05
0.0002138
0.0002536
0.0004063
0.0007908
0.001398
0.00152
0.001282
0.0008227
0.0007129
0.0004648
0.0002074
0.0001148
0.0001566
0.000201
0.0002862
0.0003954
0.0001169
4.286e-05
2.27e-05
2.042e-05
8.015e-06
1.478e-05
1.174e-05
8.698e-06
2.709e-06
1.806e-06
7.925e-07
6.559e-07
8.27e-07
1.141e-06
8.919e-07
4.49e-07
8.156e-07
2.617e-06
1.34e-05
1.996e-05
1.218e-05
1.943e-05
8.453e-05
0.002757
0.2177
0.9235
0.9883
0.9994
1
1
1
1
1
1
1
1
1
1
1
1
1
1
1
1
1
1
1
1
1
1
1
1
1
1
1
1
1
1
1
1
1
1
1
1
1
1
1
1
1
1
1
1
1
1
1
1
1
1
1
1
1
1
1
1
1
1
1
1
1
1
1
1
1
1
1
1
1
1
1
1
1
1
1
1
1
1
1
1
1
1
1
1
1
1
1
1
1
1
1
1
1.268e-06
1.838e-06
6.429e-06
2.384e-06
1.821e-06
7.826e-07
1.24e-06
2.97e-06
9.044e-06
3.549e-06
6.541e-06
4.01e-06
5.899e-06
9.02e-06
7.627e-06
6.773e-07
8.483e-08
1.241e-09
4.828e-11
8.411e-12
7.662e-11
9.283e-09
1.654e-06
2.495e-05
0.0001546
0.0001374
0.0003341
0.0006571
0.001313
0.001382
0.001235
0.0008854
0.001034
0.001111
0.0007811
0.0006101
0.0008498
0.0009414
0.001361
0.002392
0.000868
0.0003686
0.0001913
0.0002221
9.418e-05
0.0001069
9.076e-05
0.0001031
0.0001002
0.0001114
5.385e-05
1.994e-05
1.002e-05
3.768e-06
1.859e-06
1.101e-06
1.232e-06
3.491e-06
3.441e-05
0.000134
0.0006539
0.01165
0.2411
0.938
0.9963
0.9998
1
1
1
1
1
1
1
1
1
1
1
1
1
1
1
1
1
1
1
1
1
1
1
1
1
1
1
1
1
1
1
1
1
1
1
1
1
1
1
1
1
1
1
1
1
1
1
1
1
1
1
1
1
1
1
1
1
1
1
1
1
1
1
1
1
1
1
1
1
1
1
1
1
1
1
1
1
1
1
1
1
1
1
1
1
1
1
1
1
1
1
1
1
1
3.103e-06
6.39e-06
2.987e-05
1.501e-05
6.068e-06
2.489e-06
5.154e-06
8.26e-06
1.387e-05
6.495e-06
7.227e-06
7.629e-06
1.208e-05
1.75e-05
2.377e-06
6.504e-08
3.151e-09
5.506e-11
4.781e-12
1.815e-12
5.155e-11
7.963e-09
1.28e-06
2.702e-05
0.0002581
0.0001945
0.0003508
0.0006735
0.001133
0.001012
0.0008536
0.0005362
0.0007634
0.0009212
0.001208
0.001368
0.002328
0.002238
0.002876
0.004268
0.002065
0.001359
0.0009436
0.0009996
0.0003472
0.0002304
0.0001008
9.7e-05
0.0001712
0.0003456
0.0002093
5.491e-05
2.228e-05
6.789e-06
6.033e-06
5.426e-06
1.067e-05
3.585e-05
0.0006796
0.01399
0.246
0.93
0.997
0.9999
1
1
1
1
1
1
1
1
1
1
1
1
1
1
1
1
1
1
1
1
1
1
1
1
1
1
1
1
1
1
1
1
1
1
1
1
1
1
1
1
1
1
1
1
1
1
1
1
1
1
1
1
1
1
1
1
1
1
1
1
1
1
1
1
1
1
1
1
1
1
1
1
1
1
1
1
1
1
1
1
1
1
1
1
1
1
1
1
1
1
1
1
1
1
1
1
1.946e-06
6.551e-06
4.764e-05
2.438e-05
8.794e-06
7.009e-06
1.561e-05
6.088e-05
6.175e-05
3.027e-05
1.671e-05
1.433e-05
1.407e-05
1.878e-05
4.553e-07
8.785e-09
6.359e-10
4.713e-11
1.067e-11
1.031e-11
4.645e-10
5.636e-08
1.008e-05
0.0001489
0.0007569
0.0003364
0.000458
0.0006163
0.001005
0.001019
0.0009353
0.0006573
0.001054
0.00129
0.001249
0.001399
0.001897
0.001059
0.0006617
0.0007382
0.0006816
0.001132
0.002382
0.003661
0.001481
0.0005226
8.412e-05
3.784e-05
2.389e-05
3.058e-05
1.901e-05
9.027e-06
1.185e-05
1.912e-05
3.708e-05
0.0001135
0.0007337
0.005788
0.4276
0.9583
0.9972
0.9999
1
1
1
1
1
1
1
1
1
1
1
1
1
1
1
1
1
1
1
1
1
1
1
1
1
1
1
1
1
1
1
1
1
1
1
1
1
1
1
1
1
1
1
1
1
1
1
1
1
1
1
1
1
1
1
1
1
1
1
1
1
1
1
1
1
1
1
1
1
1
1
1
1
1
1
1
1
1
1
1
1
1
1
1
1
1
1
1
1
1
1
1
1
1
1
1
1
1
4.924e-06
1.563e-05
7.685e-05
4.417e-05
8.658e-06
1.034e-05
3.959e-05
0.0002391
0.0002185
7.798e-05
2.896e-05
1.804e-05
7.019e-06
6.932e-06
1.717e-07
5.114e-09
1.622e-09
9.617e-10
6.299e-10
1.42e-09
4.341e-08
2.085e-06
0.0001252
0.0009904
0.003098
0.001254
0.001362
0.001179
0.001251
0.000969
0.0008328
0.0007973
0.001533
0.002037
0.001601
0.001519
0.001578
0.0008054
0.0004074
0.0003088
0.0002285
0.0004019
0.0008653
0.001451
0.0008593
0.0004921
0.0001065
2.74e-05
6.184e-06
3.047e-06
1.508e-06
1.718e-06
8.998e-06
7.869e-05
0.0005992
0.008543
0.3244
0.9261
0.9973
0.9999
1
1
1
1
1
1
1
1
1
1
1
1
1
1
1
1
1
1
1
1
1
1
1
1
1
1
1
1
1
1
1
1
1
1
1
1
1
1
1
1
1
1
1
1
1
1
1
1
1
1
1
1
1
1
1
1
1
1
1
1
1
1
1
1
1
1
1
1
1
1
1
1
1
1
1
1
1
1
1
1
1
1
1
1
1
1
1
1
1
1
1
1
1
1
1
1
1
1
1
1
1.11e-05
2.998e-05
0.0001364
8.566e-05
1.743e-05
2.864e-05
7.755e-05
0.0004364
0.0003781
0.0001098
2.111e-05
1.377e-05
7.183e-06
5.645e-06
3.108e-07
3.199e-08
4.09e-08
1.212e-07
1.799e-07
4.495e-07
4.964e-06
5.197e-05
0.0005311
0.001711
0.003115
0.001523
0.001877
0.00157
0.001454
0.0008948
0.000998
0.001525
0.003436
0.005181
0.003319
0.002223
0.001202
0.0005347
0.0002198
0.0001412
8.839e-05
0.0001502
0.0002651
0.0004011
0.0004568
0.0004305
0.0001572
5.034e-05
1.005e-05
2.18e-06
7.199e-07
3.365e-06
7.24e-05
0.002441
0.162
0.9318
0.9974
0.9999
1
1
1
1
1
1
1
1
1
1
1
1
1
1
1
1
1
1
1
1
1
1
1
1
1
1
1
1
1
1
1
1
1
1
1
1
1
1
1
1
1
1
1
1
1
1
1
1
1
1
1
1
1
1
1
1
1
1
1
1
1
1
1
1
1
1
1
1
1
1
1
1
1
1
1
1
1
1
1
1
1
1
1
1
1
1
1
1
1
1
1
1
1
1
1
1
1
1
1
1
1
1
4.175e-05
0.0001024
0.0003272
0.0001312
3.128e-05
4.614e-05
6.447e-05
0.0004281
0.0006504
0.0002467
5.955e-05
6.335e-05
3.773e-05
2.719e-05
3.32e-06
6.031e-07
8.507e-07
3.738e-06
8.54e-06
4.03e-05
0.0001693
0.0002938
0.0004233
0.0003864
0.0003281
0.0003777
0.001261
0.001085
0.001013
0.0005383
0.0004601
0.0005581
0.001452
0.002905
0.002555
0.001927
0.001084
0.00059
0.0003837
0.0002902
0.0001571
0.0001377
0.0001125
9.331e-05
0.0001295
0.0001988
0.0001776
0.0001164
4.494e-05
1.13e-05
1.745e-05
0.0001488
0.02356
0.8634
0.9951
0.9998
1
1
1
1
1
1
1
1
1
1
1
1
1
1
1
1
1
1
1
1
1
1
1
1
1
1
1
1
1
1
1
1
1
1
1
1
1
1
1
1
1
1
1
1
1
1
1
1
1
1
1
1
1
1
1
1
1
1
1
1
1
1
1
1
1
1
1
1
1
1
1
1
1
1
1
1
1
1
1
1
1
1
1
1
1
1
1
1
1
1
1
1
1
1
1
1
1
1
1
1
1
1
1
1
7.299e-05
0.000164
0.0004569
0.000164
4.519e-05
2.659e-05
1.828e-05
0.000142
0.000492
0.0004779
0.0001718
0.0003131
0.0001998
0.0001415
3.953e-05
1.358e-05
1.931e-05
8.025e-05
0.0001232
0.0003948
0.0007755
0.0005211
0.0002771
0.0001418
0.0001155
0.0002036
0.001381
0.001145
0.001086
0.0006303
0.0004684
0.0003561
0.0006861
0.001488
0.002084
0.002423
0.001953
0.001438
0.001307
0.00093
0.0002982
0.0001302
5.4e-05
2.787e-05
3.603e-05
9.493e-05
0.0001621
0.0002789
0.0005612
0.0007667
0.00698
0.5055
0.9859
0.9996
1
1
1
1
1
1
1
1
1
1
1
1
1
1
1
1
1
1
1
1
1
1
1
1
1
1
1
1
1
1
1
0.9999
0.9994
0.9984
0.9975
0.9974
0.9982
0.9983
0.9975
0.9976
0.9983
0.9989
0.9998
1
1
1
1
1
1
1
1
1
1
1
1
1
1
1
1
1
1
1
1
1
1
1
1
1
1
1
1
1
1
1
1
1
1
1
1
1
1
1
1
1
1
1
1
1
1
1
1
1
1
1
1
1
1
1
1
1
1
1
1
1
1
1
0.0001245
0.0002483
0.000692
0.0001484
4.173e-05
8.292e-06
4.091e-06
4.112e-05
0.0005447
0.00155
0.001265
0.002242
0.001249
0.0008259
0.000357
0.0002259
0.0001555
0.0003834
0.0003399
0.0007732
0.001047
0.0005203
0.0002628
0.0001167
0.0001988
0.0005067
0.003381
0.00268
0.001965
0.001031
0.0006775
0.0003059
0.0003524
0.0006744
0.001395
0.002815
0.004274
0.003289
0.003397
0.002373
0.0007034
0.0002359
5.956e-05
2.291e-05
3.032e-05
9.25e-05
0.0002577
0.001128
0.01102
0.1504
0.9312
0.9982
1
1
1
1
1
1
1
1
1
1
1
1
1
1
1
1
1
1
1
1
1
1
1
1
1
1
1
1
0.9998
0.9987
0.998
0.9957
0.9899
0.9496
0.684
0.1028
0.0272
0.0143
0.01276
0.01002
0.01189
0.02127
0.05737
0.1359
0.7895
0.9624
0.9927
0.9976
0.9995
0.9999
1
1
1
1
1
1
1
1
1
1
1
1
1
1
1
1
1
1
1
1
1
1
1
1
1
1
1
1
1
1
1
1
1
1
1
1
1
1
1
1
1
1
1
1
1
1
1
1
1
1
1
1
1
1
1
1
1
1
0.0001135
0.0001778
0.000573
0.0001836
0.0001395
1.844e-05
7.949e-06
2.641e-05
0.0003383
0.0006691
0.001024
0.001911
0.00181
0.001249
0.0006145
0.0005837
0.0003966
0.000671
0.0008956
0.001208
0.001139
0.000627
0.0004189
0.0002378
0.000253
0.0004193
0.001961
0.001988
0.002293
0.001829
0.001281
0.0004011
0.0002996
0.000354
0.0008785
0.002356
0.004612
0.003037
0.002895
0.002018
0.0006711
0.0002289
6.857e-05
5.229e-05
0.0001025
0.0004851
0.00258
0.04586
0.8098
0.9897
0.9998
1
1
1
1
1
1
1
1
1
1
1
1
1
1
1
1
1
1
1
1
1
1
1
1
1
1
0.9995
0.996
0.977
0.8409
0.168
0.04105
0.01689
0.005722
0.001488
0.0002942
0.0001194
9.564e-05
9.695e-05
6.923e-05
4.802e-05
9.121e-05
0.0001874
0.0003205
0.0005714
0.001485
0.003418
0.01382
0.05206
0.3202
0.8659
0.9836
0.9984
0.9998
1
1
1
1
1
1
1
1
1
1
1
1
1
1
1
1
1
1
1
1
1
1
1
1
1
1
1
1
1
1
1
1
1
1
1
1
1
1
1
1
1
1
1
1
1
1
1
1
1
1
1
1
1
1
1
0.0001219
0.0001224
0.0004223
0.0002303
0.0003699
3.941e-05
2.326e-05
2.525e-05
0.0001532
0.000304
0.0006991
0.001174
0.00182
0.001648
0.0005884
0.0004785
0.0004055
0.0007928
0.00204
0.002537
0.001951
0.001233
0.001106
0.0008159
0.0007181
0.000644
0.001442
0.001545
0.002096
0.002331
0.001744
0.0004588
0.0003548
0.0003332
0.0007905
0.002074
0.004368
0.002721
0.002244
0.001205
0.0004106
0.0001975
0.0001162
0.0001538
0.0006701
0.006236
0.1648
0.9418
0.9986
1
1
1
1
1
1
1
1
1
1
1
1
1
1
1
1
1
1
1
1
1
1
1
1
1
0.9994
0.9948
0.9611
0.7348
0.107
0.0155
0.001089
0.0002735
0.0001762
9.334e-05
2.9e-05
1.11e-05
2.234e-06
1.577e-06
2.995e-06
4.063e-06
3.088e-06
2.557e-06
6.078e-06
1.505e-05
1.935e-05
2.764e-05
2.823e-05
2.969e-05
7.769e-05
0.0001847
0.0002958
0.001353
0.01115
0.1323
0.7835
0.963
0.9967
0.9997
1
1
1
1
1
1
1
1
1
1
1
1
1
1
1
1
1
1
1
1
1
1
1
1
1
1
1
1
1
1
1
1
1
1
1
1
1
1
1
1
1
1
1
1
1
1
1
0.9999
0.9991
0.9964
0.9904
0.9598
0.0001805
9.338e-05
0.0003476
0.0001871
0.0004227
5.495e-05
4.161e-05
1.925e-05
5.269e-05
0.0001167
0.0003337
0.0007368
0.001997
0.0024
0.0005989
0.0003763
0.000473
0.001401
0.001717
0.0009976
0.0004004
0.0003702
0.000948
0.00236
0.002038
0.0008897
0.0008241
0.001052
0.001716
0.002162
0.001982
0.0008509
0.000774
0.000512
0.0006236
0.0007256
0.0009104
0.0005709
0.000684
0.0004657
0.0002294
0.0001863
0.0002872
0.001263
0.02762
0.6944
0.9856
0.9997
1
1
1
1
1
1
1
1
1
1
1
1
1
1
1
1
1
1
1
1
1
1
1
0.9999
0.9981
0.9678
0.7107
0.09067
0.01026
0.001147
0.0001576
5.056e-05
9.143e-06
5.336e-06
4.847e-06
3.87e-06
1.067e-06
8.204e-07
3.491e-07
4.525e-07
8.996e-07
1.548e-06
1.415e-06
1.332e-06
2.979e-06
6.626e-06
4.874e-06
3.443e-06
1.713e-06
1.333e-06
2.607e-06
3.847e-06
3.676e-06
8.743e-06
3.662e-05
0.0002587
0.002163
0.02002
0.1654
0.7851
0.9771
0.999
1
1
1
1
1
1
1
1
1
1
1
1
1
1
1
1
1
1
1
1
1
1
1
1
1
1
1
1
1
1
1
1
1
1
1
1
1
1
1
1
1
0.9998
0.999
0.9954
0.9698
0.772
0.1534
0.03583
0.0269
0.001869
0.0002241
8.496e-05
0.0004134
0.0002016
0.0003722
6.032e-05
4.218e-05
2.105e-05
6.826e-05
0.0001288
0.0001835
0.0003386
0.001249
0.002148
0.0004518
0.0002633
0.0002599
0.0007618
0.0007923
0.0006247
0.0001562
0.0001436
0.0003634
0.002107
0.002311
0.001159
0.0009675
0.001155
0.001919
0.00224
0.002288
0.00172
0.002011
0.001447
0.001048
0.0004945
0.0002769
0.0001548
0.0002292
0.0002552
0.0003144
0.0005408
0.003623
0.07613
0.9162
0.9969
0.9999
1
1
1
1
1
1
1
1
1
1
1
1