/*--------------------------------*- C++ -*----------------------------------*\
| =========                 |                                                 |
| \\      /  F ield         | OpenFOAM: The Open Source CFD Toolbox           |
|  \\    /   O peration     | Version:  5.x                                   |
|   \\  /    A nd           | Web:      www.OpenFOAM.org                      |
|    \\/     M anipulation  |                                                 |
\*---------------------------------------------------------------------------*/
FoamFile
{
    version     2.0;
    format      ascii;
    class       volSymmTensorField;
    location    "20";
    object      sigmaD;
}
// * * * * * * * * * * * * * * * * * * * * * * * * * * * * * * * * * * * * * //

dimensions      [0 2 -2 0 0 0 0];

internalField   nonuniform List<symmTensor> 
80000
(
(85302 6006.2 0 4569.6 0 20740)
(65715 2416.6 0 326.85 0 15240)
(59074 1255 0 -59.241 0 13619)
(55185 890.96 0 44.894 0 12745)
(52204 753.35 0 109.98 0 12072)
(49615 680.29 0 124.46 0 11478)
(47250 629.95 0 119.48 0 10931)
(45046 590.19 0 109.59 0 10420)
(42971 555.97 0 99.118 0 9939.2)
(41012 524.64 0 88.937 0 9484.8)
(39163 494.82 0 79.118 0 9055.9)
(37421 465.93 0 69.664 0 8651.7)
(35784 437.88 0 60.65 0 8271.8)
(34248 410.75 0 52.186 0 7915.3)
(32810 384.7 0 44.353 0 7581.7)
(31466 359.87 0 37.193 0 7270)
(30212 336.37 0 30.721 0 6979)
(29041 314.22 0 24.94 0 6707.6)
(27950 293.43 0 19.821 0 6454.5)
(26932 273.96 0 15.315 0 6218.7)
(25984 255.77 0 11.365 0 5998.9)
(25100 238.78 0 7.9123 0 5794)
(24276 222.93 0 4.9017 0 5603.2)
(23507 208.15 0 2.292 0 5425.3)
(22791 194.35 0 0.041149 0 5259.4)
(22123 181.46 0 -1.898 0 5104.9)
(21500 169.39 0 -3.564 0 4960.8)
(20920 158.09 0 -4.9841 0 4826.5)
(20379 147.48 0 -6.1831 0 4701.4)
(19875 137.51 0 -7.1856 0 4584.9)
(19406 128.1 0 -8.0139 0 4476.5)
(18970 119.2 0 -8.6868 0 4375.7)
(18565 110.79 0 -9.2211 0 4282.1)
(18189 102.8 0 -9.631 0 4195.3)
(17841 95.211 0 -9.9294 0 4114.9)
(17520 87.996 0 -10.127 0 4040.7)
(17224 81.13 0 -10.235 0 3972.4)
(16952 74.596 0 -10.261 0 3909.6)
(16702 68.379 0 -10.213 0 3852)
(16475 62.467 0 -10.098 0 3799.5)
(16267 56.849 0 -9.9232 0 3751.7)
(16080 51.515 0 -9.6929 0 3708.5)
(15911 46.453 0 -9.4129 0 3669.5)
(15759 41.653 0 -9.0879 0 3634.6)
(15624 37.104 0 -8.7225 0 3603.5)
(15505 32.793 0 -8.321 0 3576.1)
(15400 28.708 0 -7.8875 0 3552.1)
(15310 24.837 0 -7.4256 0 3531.4)
(15233 21.167 0 -6.9389 0 3513.8)
(15169 17.685 0 -6.4302 0 3499.1)
(15117 14.381 0 -5.9022 0 3487.1)
(15076 11.241 0 -5.3572 0 3477.8)
(15046 8.2554 0 -4.7973 0 3471)
(15026 5.4139 0 -4.2242 0 3466.5)
(15016 2.7071 0 -3.6395 0 3464.4)
(15015 0.12688 0 -3.0442 0 3464.3)
(15023 -2.3339 0 -2.4395 0 3466.4)
(15040 -4.6815 0 -1.826 0 3470.3)
(15065 -6.9211 0 -1.204 0 3476.2)
(15097 -9.0569 0 -0.5739 0 3483.8)
(15137 -11.092 0 0.064075 0 3493.1)
(15183 -13.027 0 0.70926 0 3504)
(15237 -14.862 0 1.3601 0 3516.5)
(15296 -16.59 0 2.0144 0 3530.4)
(15362 -18.204 0 2.6688 0 3545.6)
(15433 -19.693 0 3.3208 0 3562.2)
(15509 -21.044 0 3.9684 0 3579.8)
(15589 -22.249 0 4.6116 0 3598.5)
(15673 -23.304 0 5.2513 0 3618.1)
(15761 -24.211 0 5.8891 0 3638.5)
(15851 -24.98 0 6.5272 0 3659.5)
(15944 -25.629 0 7.1695 0 3681.1)
(16039 -26.178 0 7.818 0 3703.1)
(16136 -26.641 0 8.4648 0 3725.6)
(16234 -27.018 0 9.0899 0 3748.3)
(16332 -27.278 0 9.6727 0 3771.3)
(16432 -27.379 0 10.208 0 3794.3)
(16531 -27.292 0 10.704 0 3817.3)
(16629 -27.018 0 11.18 0 3840.1)
(16726 -26.59 0 11.664 0 3862.5)
(16820 -26.074 0 12.154 0 3884.4)
(16912 -25.525 0 12.603 0 3905.8)
(17002 -24.962 0 13.01 0 3926.5)
(17089 -24.388 0 13.38 0 3946.6)
(17173 -23.808 0 13.596 0 3966.2)
(17256 -23.266 0 13.686 0 3985.2)
(17336 -22.701 0 13.87 0 4003.8)
(17415 -21.992 0 14.141 0 4022)
(17492 -21.127 0 14.292 0 4039.9)
(17569 -20.516 0 14.319 0 4057.8)
(17649 -19.801 0 14.117 0 4076.1)
(17729 -18.114 0 13.217 0 4094.2)
(17817 -15.33 0 12.056 0 4114.4)
(17875 -11.383 0 11.625 0 4127.6)
(17917 -6.3738 0 11.101 0 4137.1)
(17961 -0.92039 0 10.294 0 4147.3)
(17954 4.3208 0 10.612 0 4145.6)
(17929 9.4319 0 10.633 0 4140)
(17932 15.544 0 9.6427 0 4140.4)
(17858 21.851 0 10.413 0 4123.4)
(17757 26.533 0 12.953 0 4100.8)
(17646 27.492 0 15.456 0 4075.6)
(17540 24.498 0 17.849 0 4051.8)
(17424 19.372 0 18.8 0 4025.3)
(17405 14.946 0 17.297 0 4020.5)
(17348 12.681 0 15.819 0 4007.1)
(17300 11.169 0 15.386 0 3995.8)
(17259 9.7964 0 14.97 0 3986.3)
(17225 8.4999 0 14.501 0 3978.3)
(17196 7.3427 0 14.065 0 3971.5)
(17171 6.3477 0 13.707 0 3965.7)
(17149 5.4891 0 13.425 0 3960.7)
(17131 4.7284 0 13.189 0 3956.3)
(17115 4.0371 0 12.979 0 3952.5)
(17101 3.3975 0 12.786 0 3949.3)
(17089 2.7986 0 12.607 0 3946.6)
(17080 2.2326 0 12.441 0 3944.4)
(17073 1.6929 0 12.288 0 3942.7)
(17067 1.174 0 12.146 0 3941.4)
(17063 0.67149 0 12.015 0 3940.5)
(17061 0.18177 0 11.894 0 3940)
(17061 -0.29797 0 11.782 0 3939.9)
(17063 -0.76997 0 11.681 0 3940.2)
(17066 -1.2359 0 11.589 0 3940.9)
(17071 -1.6971 0 11.507 0 3942)
(17077 -2.1546 0 11.435 0 3943.5)
(17085 -2.6089 0 11.372 0 3945.3)
(17095 -3.0606 0 11.319 0 3947.6)
(17106 -3.5098 0 11.277 0 3950.2)
(17119 -3.9565 0 11.245 0 3953.2)
(17134 -4.4005 0 11.224 0 3956.5)
(17150 -4.8414 0 11.213 0 3960.2)
(17168 -5.2783 0 11.213 0 3964.3)
(17187 -5.7102 0 11.224 0 3968.8)
(17208 -6.1359 0 11.247 0 3973.6)
(17230 -6.5538 0 11.28 0 3978.8)
(17254 -6.9622 0 11.324 0 3984.3)
(17279 -7.3593 0 11.38 0 3990.2)
(17306 -7.7432 0 11.446 0 3996.4)
(17334 -8.1119 0 11.523 0 4002.9)
(17364 -8.4636 0 11.611 0 4009.7)
(17395 -8.7967 0 11.709 0 4016.9)
(17427 -9.1095 0 11.818 0 4024.3)
(17460 -9.4008 0 11.937 0 4031.9)
(17494 -9.6694 0 12.065 0 4039.8)
(17529 -9.9145 0 12.203 0 4048)
(17565 -10.135 0 12.35 0 4056.3)
(17602 -10.331 0 12.505 0 4064.8)
(17639 -10.5 0 12.669 0 4073.5)
(17677 -10.642 0 12.84 0 4082.3)
(17716 -10.756 0 13.018 0 4091.2)
(17755 -10.841 0 13.202 0 4100.2)
(17794 -10.895 0 13.391 0 4109.3)
(17833 -10.916 0 13.586 0 4118.5)
(17872 -10.904 0 13.784 0 4127.6)
(17912 -10.858 0 13.986 0 4136.7)
(17951 -10.776 0 14.191 0 4145.8)
(17990 -10.66 0 14.398 0 4154.8)
(18028 -10.509 0 14.606 0 4163.7)
(18066 -10.323 0 14.815 0 4172.4)
(18103 -10.105 0 15.025 0 4181)
(18139 -9.8541 0 15.233 0 4189.5)
(18174 -9.5724 0 15.44 0 4197.7)
(18209 -9.2608 0 15.645 0 4205.6)
(18242 -8.9201 0 15.847 0 4213.3)
(18274 -8.5507 0 16.045 0 4220.7)
(18304 -8.1528 0 16.239 0 4227.8)
(18333 -7.7261 0 16.427 0 4234.5)
(18361 -7.2703 0 16.609 0 4240.9)
(18386 -6.7849 0 16.785 0 4246.9)
(18410 -6.2694 0 16.953 0 4252.5)
(18433 -5.7234 0 17.113 0 4257.6)
(18453 -5.1465 0 17.264 0 4262.3)
(18471 -4.5393 0 17.406 0 4266.5)
(18486 -3.9028 0 17.539 0 4270.2)
(18500 -3.2375 0 17.662 0 4273.3)
(18511 -2.5458 0 17.773 0 4275.9)
(18520 -1.8314 0 17.874 0 4277.9)
(18525 -1.0972 0 17.965 0 4279.2)
(18529 -0.3472 0 18.043 0 4280)
(18529 0.41665 0 18.106 0 4280.1)
(18527 1.1972 0 18.153 0 4279.7)
(18522 1.9951 0 18.183 0 4278.5)
(18514 2.8102 0 18.199 0 4276.7)
(18503 3.6404 0 18.205 0 4274.2)
(18490 4.4796 0 18.199 0 4271)
(18473 5.3243 0 18.179 0 4267.1)
(18453 6.1745 0 18.144 0 4262.6)
(18430 7.0319 0 18.095 0 4257.3)
(18404 7.8963 0 18.033 0 4251.3)
(18375 8.767 0 17.958 0 4244.6)
(18343 9.6434 0 17.87 0 4237.1)
(18308 10.525 0 17.769 0 4229)
(18270 11.411 0 17.655 0 4220.1)
(18228 12.301 0 17.529 0 4210.5)
(18183 13.193 0 17.392 0 4200.2)
(18136 14.085 0 17.244 0 4189.2)
(18085 14.977 0 17.086 0 4177.4)
(18031 15.866 0 16.918 0 4164.9)
(17974 16.751 0 16.74 0 4151.6)
(17913 17.63 0 16.555 0 4137.7)
(17850 18.503 0 16.362 0 4123.1)
(17784 19.368 0 16.163 0 4107.7)
(17715 20.224 0 15.959 0 4091.7)
(17642 21.071 0 15.751 0 4075)
(17567 21.91 0 15.539 0 4057.6)
(17489 22.741 0 15.325 0 4039.5)
(17409 23.566 0 15.109 0 4020.8)
(17325 24.388 0 14.893 0 4001.5)
(17239 25.209 0 14.678 0 3981.5)
(17149 26.03 0 14.463 0 3960.9)
(17058 26.856 0 14.252 0 3939.6)
(16963 27.687 0 14.043 0 3917.7)
(16865 28.526 0 13.839 0 3895.2)
(16765 29.374 0 13.64 0 3872)
(16662 30.233 0 13.447 0 3848.2)
(16556 31.105 0 13.261 0 3823.7)
(16447 31.991 0 13.083 0 3798.5)
(16335 32.892 0 12.915 0 3772.7)
(16220 33.806 0 12.757 0 3746.1)
(16103 34.733 0 12.609 0 3718.9)
(15981 35.677 0 12.469 0 3690.9)
(15857 36.646 0 12.332 0 3662.3)
(15730 37.656 0 12.194 0 3632.9)
(15600 38.721 0 12.062 0 3602.7)
(15465 39.847 0 11.935 0 3571.7)
(15327 41.042 0 11.814 0 3539.8)
(15185 42.308 0 11.699 0 3507)
(15039 43.656 0 11.582 0 3473.2)
(14888 45.097 0 11.461 0 3438.3)
(14732 46.643 0 11.336 0 3402.3)
(14570 48.301 0 11.206 0 3365)
(14403 50.076 0 11.067 0 3326.4)
(14230 51.977 0 10.917 0 3286.4)
(14050 54.008 0 10.754 0 3244.8)
(13863 56.174 0 10.575 0 3201.6)
(13669 58.48 0 10.379 0 3156.7)
(13466 60.93 0 10.163 0 3109.9)
(13255 63.528 0 9.9256 0 3061.1)
(13035 66.279 0 9.6638 0 3010.3)
(12805 69.187 0 9.3755 0 2957.2)
(12565 72.26 0 9.0583 0 2901.8)
(12315 75.504 0 8.7098 0 2843.9)
(12053 78.925 0 8.3284 0 2783.4)
(11780 82.531 0 7.9131 0 2720.2)
(11494 86.326 0 7.463 0 2654.1)
(11194 90.31 0 6.9777 0 2584.9)
(10882 94.477 0 6.4597 0 2512.6)
(10554 98.808 0 5.9159 0 2437)
(10212 103.27 0 5.3584 0 2357.9)
(9854.8 107.8 0 4.7911 0 2275.3)
(9482.2 112.38 0 4.2116 0 2189.2)
(9094.3 116.93 0 3.6277 0 2099.5)
(8691.5 121.4 0 3.0448 0 2006.4)
(8274.1 125.68 0 2.4625 0 1910)
(7843 129.64 0 1.9239 0 1810.4)
(7397.3 132.99 0 1.4565 0 1707.4)
(6942.7 135.66 0 1.039 0 1602.4)
(6477.9 137.54 0 0.61855 0 1495)
(6011.7 138.87 0 0.088673 0 1387.3)
(5540.8 139.62 0 -0.47421 0 1278.5)
(5067.2 139.67 0 -0.93811 0 1169.1)
(4594.6 139.01 0 -1.3498 0 1060)
(4125.6 137.56 0 -1.726 0 951.66)
(3661.6 135.04 0 -1.9282 0 844.54)
(3205 131.11 0 -1.8627 0 739.19)
(2766.2 125.84 0 -1.5096 0 638.01)
(2343.8 118.8 0 -0.84694 0 540.69)
(1952.4 110.41 0 -0.081043 0 450.53)
(1591.9 100.31 0 0.6552 0 367.51)
(1267.7 87.996 0 1.4028 0 292.87)
(984.38 72.96 0 2.2846 0 227.69)
(745.15 56.225 0 3.25 0 172.71)
(571.61 42.132 0 3.7026 0 132.76)
(439.97 30.585 0 3.604 0 102.36)
(341.02 21.356 0 3.3729 0 79.475)
(270.19 14.409 0 2.9425 0 63.032)
(223.93 9.6475 0 2.2393 0 52.193)
(197.47 6.8483 0 1.4287 0 45.899)
(177.32 5.3812 0 0.67774 0 41.076)
(163.86 5.3053 0 0.31217 0 37.885)
(146.47 5.933 0 0.23431 0 33.854)
(129.62 6.8843 0 0.025018 0 29.918)
(111.33 7.6139 0 -0.27488 0 25.628)
(85.117 6.838 0 0.050771 0 19.654)
(65.21 5.4577 0 0.6224 0 15.192)
(48.556 3.8491 0 0.94627 0 11.424)
(38.791 2.6929 0 0.88776 0 9.1567)
(32.086 1.8753 0 0.6008 0 7.543)
(29.196 1.453 0 0.31014 0 6.8091)
(25.072 1.1271 0 0.096033 0 5.808)
(21.828 0.92081 0 0.032855 0 5.0448)
(19.088 0.78339 0 0.023688 0 4.4104)
(16.709 0.67825 0 0.028825 0 3.8625)
(14.606 0.58629 0 0.032926 0 3.3782)
(12.835 0.50835 0 0.03054 0 2.9691)
(11.318 0.44569 0 0.023122 0 2.6173)
(9.964 0.39573 0 0.014778 0 2.3028)
(8.7698 0.35823 0 0.008062 0 2.0257)
(7.6513 0.3277 0 0.00385 0 1.7666)
(6.6249 0.30056 0 0.0011862 0 1.5291)
(5.6786 0.27497 0 -0.00099905 0 1.3102)
(4.8109 0.25059 0 -0.0029767 0 1.1095)
(4.0251 0.22797 0 -0.0051058 0 0.92769)
(3.3108 0.20659 0 -0.0070775 0 0.76239)
(2.6625 0.18526 0 -0.0083163 0 0.61251)
(2.0891 0.16305 0 -0.0081307 0 0.48023)
(1.5936 0.13825 0 -0.0058292 0 0.36642)
(1.1888 0.10948 0 -0.0011121 0 0.27407)
(0.89385 0.077981 0 0.0051015 0 0.20745)
(0.71373 0.046909 0 0.010634 0 0.16716)
(0.63743 0.021437 0 0.012855 0 0.15007)
(0.63807 0.0069341 0 0.0099596 0 0.14955)
(0.71047 0.010341 0 -0.001163 0 0.16369)
(0.78085 0.033151 0 -0.019757 0 0.17564)
(0.59314 0.044748 0 -0.011589 0 0.13421)
(0.4363 0.040773 0 0.0046597 0 0.10176)
(0.2941 0.028361 0 0.013254 0 0.070929)
(0.22208 0.019511 0 0.01276 0 0.054194)
(0.17689 0.013014 0 0.0080631 0 0.042681)
(0.17165 0.010477 0 0.0040418 0 0.040545)
(0.13908 0.0073503 0 0.00053081 0 0.032219)
(0.11762 0.0054173 0 -0.0003402 0 0.027065)
(0.10254 0.0043257 0 -0.00038422 0 0.023573)
(0.090605 0.0036605 0 -0.00029731 0 0.02084)
(0.080363 0.0032068 0 -0.00022964 0 0.018492)
(0.071171 0.0028655 0 -0.0001852 0 0.016381)
(0.062823 0.0025921 0 -0.00015327 0 0.014462)
(0.055192 0.0023634 0 -0.00012998 0 0.012707)
(0.048183 0.0021657 0 -0.00011364 0 0.011093)
(0.041726 0.0019904 0 -0.00010273 0 0.0096054)
(0.035767 0.0018322 0 -9.5829e-05 0 0.0082319)
(0.030265 0.0016876 0 -9.1787e-05 0 0.006963)
(0.025185 0.0015545 0 -8.974e-05 0 0.0057912)
(0.020498 0.0014313 0 -8.9046e-05 0 0.0047097)
(0.016176 0.0013171 0 -8.9232e-05 0 0.0037123)
(0.012195 0.001211 0 -8.9939e-05 0 0.0027934)
(0.008531 0.0011124 0 -9.0904e-05 0 0.0019477)
(0.0051634 0.0010207 0 -9.1936e-05 0 0.0011703)
(0.0020715 0.00093545 0 -9.2907e-05 0 0.00045659)
(-0.00076327 0.00085597 0 -9.3739e-05 0 -0.00019777)
(-0.0033579 0.00078181 0 -9.4392e-05 0 -0.00079669)
(-0.005728 0.00071248 0 -9.4851e-05 0 -0.0013437)
(-0.0078878 0.00064755 0 -9.5116e-05 0 -0.0018422)
(-0.0098502 0.00058662 0 -9.5194e-05 0 -0.0022951)
(-0.011627 0.00052935 0 -9.5096e-05 0 -0.0027051)
(-0.013229 0.00047544 0 -9.483e-05 0 -0.0030747)
(-0.014666 0.00042461 0 -9.4404e-05 0 -0.0034062)
(-0.015947 0.00037662 0 -9.3823e-05 0 -0.0037016)
(-0.01708 0.00033127 0 -9.3091e-05 0 -0.003963)
(-0.018074 0.00028837 0 -9.221e-05 0 -0.0041921)
(-0.018935 0.00024775 0 -9.1184e-05 0 -0.0043906)
(-0.01967 0.00020925 0 -9.0015e-05 0 -0.00456)
(-0.020286 0.00017275 0 -8.8705e-05 0 -0.0047019)
(-0.020789 0.00013811 0 -8.7255e-05 0 -0.0048175)
(-0.021183 0.00010524 0 -8.567e-05 0 -0.0049082)
(-0.021475 7.4035e-05 0 -8.3951e-05 0 -0.0049751)
(-0.021669 4.4412e-05 0 -8.2099e-05 0 -0.0050195)
(-0.021771 1.6297e-05 0 -8.0117e-05 0 -0.0050425)
(-0.021784 -1.0376e-05 0 -7.8007e-05 0 -0.005045)
(-0.021713 -3.5663e-05 0 -7.5772e-05 0 -0.0050282)
(-0.021563 -5.9613e-05 0 -7.3413e-05 0 -0.0049929)
(-0.021337 -8.2267e-05 0 -7.0935e-05 0 -0.0049402)
(-0.021039 -0.00010366 0 -6.8339e-05 0 -0.004871)
(-0.020675 -0.00012381 0 -6.5631e-05 0 -0.0047862)
(-0.020246 -0.00014275 0 -6.2814e-05 0 -0.0046867)
(-0.019758 -0.00016048 0 -5.9895e-05 0 -0.0045734)
(-0.019215 -0.000177 0 -5.6879e-05 0 -0.0044472)
(-0.018619 -0.00019232 0 -5.3773e-05 0 -0.004309)
(-0.017975 -0.00020642 0 -5.0585e-05 0 -0.0041598)
(-0.017287 -0.00021928 0 -4.7324e-05 0 -0.0040003)
(-0.01656 -0.00023087 0 -4.4e-05 0 -0.0038316)
(-0.015796 -0.00024117 0 -4.0623e-05 0 -0.0036547)
(-0.015001 -0.00025013 0 -3.7205e-05 0 -0.0034704)
(-0.014179 -0.0002577 0 -3.3761e-05 0 -0.00328)
(-0.013335 -0.00026385 0 -3.0304e-05 0 -0.0030843)
(-0.012473 -0.0002685 0 -2.6851e-05 0 -0.0028846)
(-0.011598 -0.00027162 0 -2.3418e-05 0 -0.002682)
(-0.010716 -0.00027314 0 -2.0024e-05 0 -0.0024776)
(-0.0098314 -0.00027301 0 -1.6692e-05 0 -0.0022726)
(-0.0089499 -0.00027117 0 -1.3441e-05 0 -0.0020685)
(-0.0080772 -0.00026758 0 -1.0298e-05 0 -0.0018663)
(-0.0072192 -0.00026218 0 -7.2891e-06 0 -0.0016676)
(-0.0063817 -0.00025494 0 -4.4456e-06 0 -0.0014737)
(-0.0055708 -0.00024582 0 -1.8024e-06 0 -0.001286)
(-0.0047928 -0.00023482 0 6.0669e-07 0 -0.0011059)
(-0.0040538 -0.00022196 0 2.7605e-06 0 -0.00093486)
(-0.0033601 -0.00020725 0 4.6511e-06 0 -0.00077434)
(-0.0027177 -0.00019072 0 6.2231e-06 0 -0.00062573)
(-0.0021324 -0.00017224 0 7.2183e-06 0 -0.00049042)
(-0.0016097 -0.00015163 0 7.1397e-06 0 -0.00036983)
(-0.0011584 -0.00012937 0 5.7727e-06 0 -0.00026598)
(-0.00078508 -0.00010693 0 4.0691e-06 0 -0.00018023)
(-0.0004907 -8.648e-05 0 4.4708e-06 0 -0.00011221)
(-0.00026136 -6.7573e-05 0 8.0523e-06 0 -5.8455e-05)
(-8.4948e-05 -4.3551e-05 0 7.8359e-06 0 -1.7795e-05)
(7.1332e-06 -2.4499e-05 0 1.3025e-06 0 1.9467e-06)
(5.1364e-05 -1.2401e-05 0 -4.657e-06 0 1.0779e-05)
(5.1641e-05 -1.6334e-06 0 -2.6453e-06 0 1.1307e-05)
(1.8679e-05 7.1333e-07 0 1.9571e-05 0 8.8269e-06)
(57862 13514 0 8363.7 0 15283)
(59493 8900 0 2327.3 0 14266)
(56261 6127.6 0 684.2 0 13141)
(52825 4614.3 0 338.62 0 12268)
(49926 3837.7 0 253.12 0 11580)
(47455 3407.5 0 204.74 0 10998)
(45257 3129.7 0 168.86 0 10483)
(43241 2921.4 0 145.86 0 10012)
(41364 2747 0 133.4 0 9576.3)
(39603 2589.9 0 127.36 0 9168.5)
(37945 2442.1 0 124.14 0 8785.3)
(36384 2300.3 0 121.48 0 8424.4)
(34914 2163.3 0 118.29 0 8084.3)
(33530 2031.3 0 114.27 0 7764)
(32229 1904.6 0 109.46 0 7462.6)
(31006 1783.9 0 104.02 0 7179.4)
(29860 1669.5 0 98.193 0 6913.4)
(28784 1561.5 0 92.235 0 6663.8)
(27776 1460 0 86.355 0 6429.8)
(26831 1364.7 0 80.662 0 6210.3)
(25945 1275.6 0 75.223 0 6004.7)
(25116 1192.2 0 70.08 0 5812.1)
(24338 1114.2 0 65.269 0 5631.6)
(23610 1041.4 0 60.832 0 5462.6)
(22929 973.35 0 56.774 0 5304.3)
(22290 909.66 0 53.052 0 5156.1)
(21692 849.99 0 49.637 0 5017.4)
(21133 794.01 0 46.523 0 4887.6)
(20610 741.38 0 43.702 0 4766.2)
(20120 691.8 0 41.149 0 4652.7)
(19663 644.99 0 38.838 0 4546.6)
(19236 600.71 0 36.74 0 4447.6)
(18839 558.74 0 34.825 0 4355.4)
(18468 518.89 0 33.066 0 4269.5)
(18124 481.01 0 31.436 0 4189.7)
(17804 444.95 0 29.911 0 4115.6)
(17508 410.61 0 28.468 0 4047)
(17235 377.9 0 27.092 0 3983.6)
(16984 346.77 0 25.771 0 3925.2)
(16752 317.13 0 24.496 0 3871.6)
(16541 288.95 0 23.264 0 3822.5)
(16348 262.17 0 22.076 0 3777.7)
(16173 236.73 0 20.934 0 3737)
(16014 212.6 0 19.839 0 3700.1)
(15872 189.7 0 18.796 0 3667)
(15744 167.98 0 17.805 0 3637.4)
(15632 147.39 0 16.868 0 3611.2)
(15533 127.85 0 15.985 0 3588.1)
(15446 109.32 0 15.156 0 3568.1)
(15373 91.733 0 14.379 0 3550.9)
(15311 75.027 0 13.654 0 3536.4)
(15260 59.149 0 12.978 0 3524.5)
(15220 44.046 0 12.348 0 3515.1)
(15190 29.669 0 11.759 0 3508.1)
(15169 15.975 0 11.208 0 3503.2)
(15158 2.923 0 10.689 0 3500.5)
(15156 -9.5199 0 10.199 0 3499.9)
(15162 -21.383 0 9.7314 0 3501.2)
(15176 -32.692 0 9.2842 0 3504.3)
(15197 -43.465 0 8.8534 0 3509.1)
(15226 -53.716 0 8.4338 0 3515.7)
(15262 -63.453 0 8.0172 0 3523.8)
(15304 -72.67 0 7.59 0 3533.4)
(15352 -81.345 0 7.1342 0 3544.4)
(15406 -89.442 0 6.6306 0 3556.7)
(15465 -96.908 0 6.0677 0 3570.3)
(15529 -103.69 0 5.448 0 3584.9)
(15598 -109.74 0 4.7915 0 3600.6)
(15670 -115.04 0 4.1308 0 3617.2)
(15746 -119.6 0 3.501 0 3634.5)
(15825 -123.47 0 2.9336 0 3652.6)
(15906 -126.72 0 2.4598 0 3671.2)
(15990 -129.44 0 2.0968 0 3690.4)
(16075 -131.72 0 1.7968 0 3710)
(16161 -133.57 0 1.4258 0 3729.8)
(16249 -134.86 0 0.85375 0 3749.9)
(16337 -135.4 0 0.078798 0 3770.2)
(16426 -135.05 0 -0.78676 0 3790.5)
(16515 -133.83 0 -1.5859 0 3810.7)
(16602 -131.9 0 -2.0919 0 3830.8)
(16689 -129.57 0 -2.246 0 3850.8)
(16775 -127.07 0 -2.3581 0 3870.6)
(16860 -124.53 0 -2.4829 0 3890.2)
(16944 -121.83 0 -2.5176 0 3909.6)
(17028 -118.81 0 -2.9907 0 3928.9)
(17112 -115.92 0 -3.7534 0 3948.2)
(17198 -112.59 0 -3.8646 0 3967.9)
(17283 -107.66 0 -3.7581 0 3987.5)
(17362 -100.94 0 -5.1878 0 4005.4)
(17437 -93.439 0 -7.6365 0 4022.3)
(17483 -84.18 0 -9.6469 0 4032.4)
(17511 -72.458 0 -12.8 0 4038.1)
(17542 -58.668 0 -15.964 0 4044.5)
(17541 -41.874 0 -15.666 0 4044.2)
(17534 -22.318 0 -16.378 0 4042.6)
(17554 -0.83665 0 -19.702 0 4046.3)
(17523 21 0 -19.061 0 4039.3)
(17476 42.801 0 -17.288 0 4029)
(17444 64.407 0 -17.53 0 4021.5)
(17385 82.768 0 -12.867 0 4008.9)
(17320 95.188 0 -4.8845 0 3995.8)
(17305 98.198 0 0.84188 0 3993.7)
(17264 91.327 0 7.0971 0 3985.6)
(17210 77.943 0 11.175 0 3974.2)
(17203 64.912 0 8.9295 0 3972)
(17167 56.103 0 6.4409 0 3963.2)
(17136 48.907 0 6.1221 0 3955.9)
(17109 42.665 0 5.7357 0 3949.7)
(17087 37.147 0 5.0345 0 3944.2)
(17067 32.28 0 4.2664 0 3939.5)
(17050 27.997 0 3.6467 0 3935.4)
(17034 24.194 0 3.2237 0 3931.8)
(17021 20.76 0 2.9394 0 3928.7)
(17010 17.61 0 2.731 0 3926.1)
(17001 14.677 0 2.5659 0 3923.9)
(16994 11.917 0 2.4318 0 3922.2)
(16988 9.2931 0 2.324 0 3920.9)
(16984 6.778 0 2.2388 0 3919.9)
(16981 4.3482 0 2.1725 0 3919.3)
(16981 1.9849 0 2.1215 0 3919.1)
(16981 -0.32716 0 2.0824 0 3919.2)
(16983 -2.6 0 2.0528 0 3919.6)
(16987 -4.843 0 2.0304 0 3920.4)
(16991 -7.0634 0 2.0135 0 3921.6)
(16998 -9.2667 0 2.0006 0 3923)
(17006 -11.457 0 1.9906 0 3924.8)
(17015 -13.636 0 1.9824 0 3926.9)
(17025 -15.806 0 1.9753 0 3929.4)
(17037 -17.967 0 1.9683 0 3932.1)
(17051 -20.119 0 1.9606 0 3935.2)
(17065 -22.26 0 1.9512 0 3938.6)
(17081 -24.387 0 1.9389 0 3942.3)
(17099 -26.496 0 1.9227 0 3946.3)
(17118 -28.583 0 1.9013 0 3950.7)
(17138 -30.64 0 1.8736 0 3955.3)
(17159 -32.659 0 1.8387 0 3960.3)
(17182 -34.633 0 1.7959 0 3965.5)
(17206 -36.553 0 1.7447 0 3971)
(17231 -38.408 0 1.6849 0 3976.8)
(17257 -40.189 0 1.6168 0 3982.9)
(17285 -41.888 0 1.5408 0 3989.2)
(17313 -43.496 0 1.4577 0 3995.7)
(17343 -45.005 0 1.3684 0 4002.5)
(17373 -46.408 0 1.274 0 4009.5)
(17404 -47.701 0 1.1754 0 4016.7)
(17436 -48.879 0 1.0733 0 4024)
(17469 -49.936 0 0.96793 0 4031.5)
(17502 -50.87 0 0.85924 0 4039.2)
(17536 -51.676 0 0.7467 0 4047)
(17570 -52.349 0 0.62955 0 4054.8)
(17605 -52.884 0 0.50695 0 4062.8)
(17640 -53.273 0 0.3783 0 4070.8)
(17675 -53.512 0 0.24339 0 4078.9)
(17710 -53.592 0 0.10256 0 4087)
(17745 -53.51 0 -0.043236 0 4095)
(17780 -53.259 0 -0.19255 0 4103)
(17815 -52.838 0 -0.34354 0 4111)
(17849 -52.246 0 -0.49424 0 4118.9)
(17883 -51.483 0 -0.64275 0 4126.7)
(17916 -50.554 0 -0.78752 0 4134.3)
(17949 -49.462 0 -0.92752 0 4141.8)
(17980 -48.213 0 -1.0622 0 4149.1)
(18011 -46.812 0 -1.1917 0 4156.2)
(18041 -45.264 0 -1.3167 0 4163)
(18070 -43.573 0 -1.4388 0 4169.6)
(18097 -41.741 0 -1.5598 0 4176)
(18124 -39.769 0 -1.6816 0 4182)
(18149 -37.656 0 -1.8051 0 4187.7)
(18172 -35.401 0 -1.9304 0 4193.1)
(18194 -33.001 0 -2.0579 0 4198.2)
(18214 -30.455 0 -2.1881 0 4202.8)
(18233 -27.76 0 -2.3208 0 4207.1)
(18250 -24.918 0 -2.4528 0 4210.9)
(18264 -21.929 0 -2.5801 0 4214.3)
(18277 -18.799 0 -2.6992 0 4217.2)
(18288 -15.536 0 -2.8107 0 4219.6)
(18296 -12.15 0 -2.9188 0 4221.5)
(18302 -8.6513 0 -3.0194 0 4222.9)
(18306 -5.0517 0 -3.1054 0 4223.8)
(18308 -1.3606 0 -3.1806 0 4224.1)
(18307 2.4131 0 -3.2511 0 4223.9)
(18303 6.2667 0 -3.3199 0 4223.1)
(18297 10.198 0 -3.387 0 4221.7)
(18289 14.202 0 -3.444 0 4219.7)
(18277 18.268 0 -3.484 0 4217)
(18263 22.379 0 -3.5132 0 4213.8)
(18246 26.524 0 -3.5414 0 4209.9)
(18227 30.701 0 -3.5721 0 4205.4)
(18205 34.911 0 -3.6022 0 4200.3)
(18180 39.154 0 -3.6294 0 4194.5)
(18152 43.428 0 -3.655 0 4188)
(18121 47.73 0 -3.6794 0 4180.9)
(18088 52.06 0 -3.7015 0 4173.2)
(18051 56.411 0 -3.7197 0 4164.8)
(18012 60.78 0 -3.7326 0 4155.7)
(17970 65.159 0 -3.7391 0 4146)
(17924 69.543 0 -3.7388 0 4135.5)
(17876 73.923 0 -3.7315 0 4124.5)
(17825 78.293 0 -3.7171 0 4112.7)
(17772 82.645 0 -3.6958 0 4100.3)
(17715 86.971 0 -3.668 0 4087.2)
(17655 91.267 0 -3.6346 0 4073.4)
(17593 95.526 0 -3.5969 0 4059)
(17527 99.746 0 -3.5568 0 4043.9)
(17459 103.93 0 -3.5168 0 4028.2)
(17388 108.07 0 -3.4797 0 4011.8)
(17314 112.17 0 -3.4485 0 3994.7)
(17237 116.25 0 -3.4261 0 3977)
(17158 120.32 0 -3.4146 0 3958.7)
(17076 124.38 0 -3.4153 0 3939.7)
(16991 128.45 0 -3.428 0 3920.1)
(16903 132.54 0 -3.451 0 3899.8)
(16812 136.66 0 -3.4821 0 3878.9)
(16718 140.82 0 -3.5201 0 3857.3)
(16622 145.03 0 -3.5638 0 3835)
(16522 149.28 0 -3.6115 0 3812)
(16420 153.6 0 -3.6603 0 3788.4)
(16315 157.98 0 -3.7111 0 3764)
(16206 162.42 0 -3.7667 0 3739)
(16094 166.92 0 -3.8332 0 3713.2)
(15980 171.51 0 -3.9156 0 3686.7)
(15861 176.2 0 -4.0224 0 3659.4)
(15740 181.02 0 -4.1698 0 3631.4)
(15615 186.03 0 -4.3626 0 3602.5)
(15487 191.29 0 -4.5961 0 3572.8)
(15355 196.83 0 -4.8663 0 3542.2)
(15218 202.69 0 -5.1725 0 3510.7)
(15078 208.89 0 -5.5154 0 3478.3)
(14933 215.5 0 -5.9055 0 3444.8)
(14784 222.55 0 -6.3427 0 3410.2)
(14629 230.1 0 -6.8154 0 3374.4)
(14470 238.17 0 -7.3203 0 3337.4)
(14304 246.81 0 -7.8557 0 3299.1)
(14133 256.04 0 -8.4185 0 3259.4)
(13955 265.9 0 -9.0047 0 3218.2)
(13770 276.4 0 -9.6105 0 3175.4)
(13578 287.56 0 -10.234 0 3131)
(13378 299.41 0 -10.875 0 3084.7)
(13170 311.95 0 -11.535 0 3036.6)
(12953 325.21 0 -12.219 0 2986.4)
(12728 339.22 0 -12.931 0 2934.2)
(12492 354 0 -13.677 0 2879.7)
(12247 369.57 0 -14.46 0 2822.8)
(11991 385.97 0 -15.281 0 2763.5)
(11723 403.21 0 -16.131 0 2701.6)
(11444 421.32 0 -16.998 0 2636.9)
(11152 440.28 0 -17.863 0 2569.4)
(10847 460.03 0 -18.694 0 2498.9)
(10529 480.49 0 -19.451 0 2425.3)
(10197 501.5 0 -20.068 0 2348.5)
(9850.6 522.86 0 -20.507 0 2268.5)
(9489.9 544.33 0 -20.743 0 2185.2)
(9114.6 565.61 0 -20.729 0 2098.6)
(8724.8 586.31 0 -20.431 0 2008.7)
(8321.1 605.98 0 -19.826 0 1915.7)
(7904.2 623.99 0 -18.767 0 1819.7)
(7473.6 639.47 0 -17.133 0 1720.7)
(7033.1 652.07 0 -14.949 0 1619.6)
(6582.1 661.35 0 -12.431 0 1516.1)
(6127.8 667.93 0 -10.017 0 1411.8)
(5669.1 671.49 0 -7.62 0 1306.5)
(5207.5 671.56 0 -4.9696 0 1200.6)
(4746.8 668.03 0 -2.2364 0 1094.9)
(4289 660.42 0 0.5861 0 989.91)
(3835.7 647.68 0 4.0369 0 886.09)
(3388.8 628.49 0 8.432 0 783.97)
(2956.2 602.97 0 13.786 0 685.39)
(2537.9 569.78 0 19.752 0 590.22)
(2142.7 529.35 0 25.641 0 500.39)
(1771.7 479.7 0 31.046 0 416.02)
(1429.2 418.41 0 35.593 0 338.04)
(1125.7 346.12 0 38.658 0 268.7)
(857.89 265.2 0 38.806 0 206.93)
(662.98 197.45 0 36.126 0 161.33)
(519.29 144.11 0 31.692 0 127.15)
(413.9 103.97 0 26.826 0 101.71)
(338.29 75.455 0 21.407 0 83.008)
(285.19 56.573 0 15.546 0 69.4)
(246.46 45.402 0 9.6479 0 59.103)
(213.11 39.837 0 4.5099 0 50.22)
(176.33 37.357 0 0.87276 0 40.892)
(140.9 36.797 0 -1.6117 0 32.142)
(107.46 35.756 0 -3.1952 0 24.062)
(79.97 32.461 0 -2.7726 0 17.815)
(58.642 25.473 0 0.25109 0 13.591)
(46.818 18.932 0 3.2494 0 11.554)
(38.087 13.435 0 4.4458 0 9.8153)
(33.018 9.9585 0 4.0091 0 8.5446)
(28.922 7.5733 0 2.8562 0 7.3335)
(26.295 6.1918 0 1.7312 0 6.4675)
(22.583 4.9818 0 0.87939 0 5.4143)
(19.473 4.0971 0 0.5029 0 4.6098)
(16.846 3.4444 0 0.36553 0 3.9719)
(14.668 2.9427 0 0.31892 0 3.4585)
(12.831 2.5362 0 0.2868 0 3.0271)
(11.289 2.21 0 0.24312 0 2.6613)
(9.9506 1.949 0 0.19068 0 2.3403)
(8.7691 1.7409 0 0.14536 0 2.0572)
(7.6864 1.5683 0 0.11645 0 1.8007)
(6.7123 1.4235 0 0.10088 0 1.5723)
(5.8367 1.2971 0 0.091909 0 1.3681)
(5.0432 1.1829 0 0.085573 0 1.1836)
(4.3239 1.0782 0 0.080209 0 1.0163)
(3.6789 0.98388 0 0.075742 0 0.86647)
(3.0917 0.89429 0 0.073969 0 0.73053)
(2.5632 0.80581 0 0.077426 0 0.60938)
(2.0872 0.71113 0 0.087744 0 0.50192)
(1.6712 0.60689 0 0.10489 0 0.40988)
(1.3136 0.48897 0 0.12508 0 0.33201)
(1.0209 0.36303 0 0.14015 0 0.26792)
(0.78736 0.24023 0 0.13615 0 0.21312)
(0.60592 0.14098 0 0.099632 0 0.16282)
(0.47208 0.086289 0 0.026674 0 0.1151)
(0.33379 0.084143 0 -0.069254 0 0.061046)
(0.20446 0.11208 0 -0.12402 0 0.018563)
(0.13388 0.1062 0 -0.066039 0 0.015656)
(0.13742 0.087493 0 4.5047e-05 0 0.031723)
(0.13704 0.065658 0 0.033253 0 0.039298)
(0.13871 0.053811 0 0.03759 0 0.040684)
(0.13277 0.042788 0 0.028117 0 0.037128)
(0.13394 0.037407 0 0.017985 0 0.035059)
(0.1138 0.028502 0 0.0081314 0 0.028138)
(0.097096 0.021904 0 0.0039716 0 0.023323)
(0.084049 0.017696 0 0.0024073 0 0.019952)
(0.073532 0.01496 0 0.0017147 0 0.017365)
(0.064661 0.013046 0 0.0013116 0 0.015224)
(0.056918 0.011597 0 0.0010466 0 0.013376)
(0.050068 0.010441 0 0.00087122 0 0.011755)
(0.043947 0.0094822 0 0.00075274 0 0.010315)
(0.038431 0.0086623 0 0.00066899 0 0.009023)
(0.033424 0.0079434 0 0.00060649 0 0.0078532)
(0.028859 0.0073007 0 0.0005573 0 0.0067883)
(0.024681 0.0067182 0 0.00051663 0 0.0058148)
(0.02085 0.0061853 0 0.00048148 0 0.0049227)
(0.017333 0.0056947 0 0.00045001 0 0.0041038)
(0.014102 0.0052414 0 0.00042117 0 0.0033515)
(0.011133 0.0048217 0 0.00039443 0 0.0026601)
(0.008405 0.0044324 0 0.00036959 0 0.0020249)
(0.0058999 0.0040709 0 0.00034659 0 0.0014415)
(0.0036011 0.0037348 0 0.00032543 0 0.00090613)
(0.0014939 0.0034218 0 0.00030608 0 0.00041537)
(-0.0004352 0.0031297 0 0.00028846 0 -3.3863e-05)
(-0.002198 0.0028566 0 0.00027243 0 -0.00044437)
(-0.0038054 0.0026008 0 0.00025784 0 -0.00081868)
(-0.0052673 0.0023607 0 0.00024451 0 -0.0011591)
(-0.0065925 0.0021349 0 0.0002323 0 -0.0014677)
(-0.0077893 0.0019221 0 0.00022105 0 -0.0017465)
(-0.008865 0.0017215 0 0.00021064 0 -0.0019972)
(-0.0098267 0.0015319 0 0.00020096 0 -0.0022213)
(-0.010681 0.0013526 0 0.00019193 0 -0.0024205)
(-0.011433 0.0011828 0 0.00018347 0 -0.002596)
(-0.012089 0.0010219 0 0.00017552 0 -0.0027492)
(-0.012654 0.00086922 0 0.00016801 0 -0.0028813)
(-0.013132 0.00072433 0 0.00016089 0 -0.0029933)
(-0.013529 0.00058672 0 0.00015411 0 -0.0030864)
(-0.013847 0.00045598 0 0.00014761 0 -0.0031615)
(-0.014093 0.00033175 0 0.00014137 0 -0.0032195)
(-0.014268 0.00021371 0 0.00013533 0 -0.0032614)
(-0.014377 0.00010158 0 0.00012947 0 -0.0032879)
(-0.014424 -4.8768e-06 0 0.00012374 0 -0.0033)
(-0.014411 -0.00010587 0 0.00011813 0 -0.0032982)
(-0.014341 -0.00020158 0 0.0001126 0 -0.0032835)
(-0.014219 -0.00029214 0 0.00010713 0 -0.0032566)
(-0.014046 -0.00037768 0 0.0001017 0 -0.003218)
(-0.013827 -0.00045827 0 9.6269e-05 0 -0.0031686)
(-0.013563 -0.00053398 0 9.0827e-05 0 -0.0031089)
(-0.013258 -0.00060484 0 8.5347e-05 0 -0.0030398)
(-0.012914 -0.00067086 0 7.9804e-05 0 -0.0029617)
(-0.012534 -0.00073201 0 7.4174e-05 0 -0.0028754)
(-0.012122 -0.00078824 0 6.8436e-05 0 -0.0027815)
(-0.011679 -0.00083949 0 6.2567e-05 0 -0.0026808)
(-0.01121 -0.00088565 0 5.6547e-05 0 -0.0025738)
(-0.010716 -0.00092659 0 5.0358e-05 0 -0.0024613)
(-0.010201 -0.00096218 0 4.3985e-05 0 -0.0023439)
(-0.0096678 -0.00099226 0 3.7415e-05 0 -0.0022224)
(-0.0091197 -0.0010167 0 3.064e-05 0 -0.0020975)
(-0.0085598 -0.0010352 0 2.3655e-05 0 -0.0019699)
(-0.0079915 -0.0010476 0 1.6461e-05 0 -0.0018404)
(-0.0074181 -0.0010538 0 9.0636e-06 0 -0.0017098)
(-0.0068431 -0.0010536 0 1.4741e-06 0 -0.0015788)
(-0.0062701 -0.0010467 0 -6.2899e-06 0 -0.0014484)
(-0.0057027 -0.001033 0 -1.4205e-05 0 -0.0013193)
(-0.0051446 -0.0010123 0 -2.2241e-05 0 -0.0011923)
(-0.0045995 -0.00098461 0 -3.0364e-05 0 -0.0010684)
(-0.0040712 -0.00094976 0 -3.8528e-05 0 -0.0009484)
(-0.0035634 -0.00090775 0 -4.6665e-05 0 -0.00083309)
(-0.0030798 -0.00085864 0 -5.4656e-05 0 -0.00072334)
(-0.0026241 -0.00080255 0 -6.2368e-05 0 -0.00061996)
(-0.0022 -0.0007396 0 -6.9817e-05 0 -0.00052379)
(-0.0018102 -0.00066964 0 -7.7446e-05 0 -0.00043562)
(-0.0014569 -0.00059254 0 -8.5825e-05 0 -0.00035602)
(-0.0011431 -0.00051036 0 -9.4192e-05 0 -0.00028552)