/*--------------------------------*- C++ -*----------------------------------*\
| =========                 |                                                 |
| \\      /  F ield         | OpenFOAM: The Open Source CFD Toolbox           |
|  \\    /   O peration     | Version:  5.x                                   |
|   \\  /    A nd           | Web:      www.OpenFOAM.org                      |
|    \\/     M anipulation  |                                                 |
\*---------------------------------------------------------------------------*/
FoamFile
{
    version     2.0;
    format      ascii;
    class       volScalarField;
    location    "70";
    object      gamma;
}
// * * * * * * * * * * * * * * * * * * * * * * * * * * * * * * * * * * * * * //

dimensions      [0 0 0 0 0 0 0];

internalField   nonuniform List<scalar> 
86400
(
0.000981
0.001013
0.001136
0.001365
0.001803
0.002407
0.003124
0.004199
0.006323
0.009688
0.01553
0.02424
0.03806
0.05282
0.06939
0.0782
0.08085
0.07061
0.06144
0.05446
0.04851
0.04245
0.03851
0.03476
0.03389
0.03861
0.04077
0.04209
0.04073
0.03978
0.03852
0.03925
0.04004
0.0408
0.04185
0.04355
0.04061
0.03553
0.02852
0.02469
0.02232
0.02247
0.02164
0.02004
0.01993
0.02102
0.0237
0.0255
0.0266
0.02556
0.02526
0.02533
0.02538
0.02511
0.02447
0.02474
0.02534
0.02576
0.02588
0.02579
0.02446
0.02429
0.02313
0.02315
0.02499
0.02801
0.03092
0.03269
0.03057
0.02885
0.02938
0.03059
0.03201
0.02968
0.028
0.02606
0.02417
0.02483
0.02803
0.03179
0.03779
0.04127
0.04057
0.03932
0.03934
0.03847
0.04007
0.04056
0.04151
0.04201
0.04067
0.04384
0.0494
0.06023
0.06845
0.074
0.07077
0.06955
0.06918
0.06919
0.06942
0.07059
0.06618
0.05909
0.04801
0.04608
0.05028
0.06606
0.08004
0.09072
0.08853
0.08569
0.08215
0.07814
0.07308
0.06967
0.06771
0.06647
0.06462
0.06246
0.06065
0.05942
0.05937
0.05905
0.05888
0.05896
0.05859
0.058
0.05723
0.05628
0.05506
0.05707
0.06005
0.06388
0.06756
0.07106
0.07322
0.07488
0.06186
0.04523
0.03519
0.03573
0.04127
0.04972
0.04864
0.04201
0.0378
0.03954
0.04199
0.04286
0.042
0.04376
0.05117
0.05468
0.05662
0.05896
0.06755
0.1117
0.8643
0.9905
0.001069
0.001035
0.001121
0.001303
0.001816
0.002712
0.004012
0.006192
0.01023
0.01634
0.02712
0.04063
0.05717
0.07187
0.0896
0.1027
0.1141
0.1093
0.1039
0.09723
0.0923
0.08806
0.08449
0.07726
0.07438
0.07475
0.07466
0.07374
0.07231
0.07057
0.06739
0.06611
0.06493
0.06406
0.06408
0.06571
0.06261
0.05701
0.04974
0.04466
0.04053
0.03917
0.03747
0.03483
0.0337
0.03447
0.03596
0.03734
0.03842
0.03791
0.0384
0.03939
0.0403
0.04067
0.03983
0.03831
0.03647
0.03477
0.03289
0.03183
0.03046
0.03074
0.02983
0.03053
0.03342
0.03964
0.04405
0.04692
0.04471
0.04325
0.04407
0.04478
0.04476
0.04136
0.03954
0.03917
0.04194
0.04669
0.05246
0.0554
0.06155
0.06566
0.06866
0.07158
0.0751
0.0762
0.08004
0.0809
0.08268
0.084
0.08275
0.08731
0.09408
0.1026
0.1098
0.1142
0.1101
0.1085
0.1079
0.1088
0.1106
0.1141
0.1119
0.1041
0.09065
0.0864
0.09111
0.1064
0.1245
0.1381
0.1371
0.1336
0.1298
0.1258
0.1215
0.118
0.1161
0.1144
0.1114
0.1071
0.104
0.1018
0.1016
0.1013
0.1012
0.1015
0.1006
0.09932
0.09762
0.09586
0.09396
0.09732
0.1023
0.1102
0.1165
0.1194
0.1182
0.1153
0.0982
0.07755
0.06884
0.0693
0.07319
0.08158
0.08296
0.0764
0.0725
0.07648
0.08215
0.08216
0.07924
0.08069
0.09243
0.1065
0.1287
0.165
0.2348
0.4492
0.8258
0.9581
0.00129
0.001212
0.001278
0.001504
0.002281
0.003815
0.006331
0.01106
0.01918
0.0312
0.04942
0.06995
0.09706
0.1244
0.1546
0.1761
0.1946
0.1895
0.1939
0.1917
0.1876
0.1807
0.1757
0.1636
0.1631
0.168
0.1662
0.1606
0.1555
0.1488
0.1425
0.1385
0.1319
0.1251
0.1195
0.1172
0.1102
0.1008
0.08922
0.08083
0.07352
0.06964
0.06463
0.06081
0.05905
0.06052
0.06239
0.06414
0.06579
0.0631
0.06034
0.05805
0.05667
0.05637
0.05703
0.05487
0.0517
0.04745
0.0441
0.04184
0.04071
0.04197
0.04263
0.04675
0.05186
0.05818
0.0636
0.06791
0.06642
0.06481
0.0652
0.06413
0.06349
0.06246
0.06502
0.07346
0.08432
0.09481
0.1042
0.108
0.1146
0.1192
0.1246
0.1327
0.1445
0.1502
0.1586
0.1617
0.1619
0.159
0.1511
0.1481
0.1526
0.1643
0.1762
0.1849
0.1846
0.1827
0.1826
0.1851
0.1894
0.1958
0.1981
0.1912
0.1754
0.1685
0.1749
0.1934
0.2186
0.2355
0.2359
0.2312
0.2264
0.221
0.2156
0.2114
0.2056
0.1978
0.1878
0.1781
0.1716
0.1692
0.1692
0.1693
0.1697
0.1705
0.1694
0.1673
0.1638
0.1612
0.1588
0.1638
0.1707
0.1795
0.1883
0.1911
0.188
0.1822
0.1649
0.1442
0.1356
0.1362
0.1416
0.151
0.1532
0.1442
0.1377
0.1408
0.1497
0.1511
0.1545
0.1631
0.2023
0.2594
0.3745
0.523
0.6551
0.7847
0.8952
0.9502
0.001721
0.001633
0.001779
0.002272
0.003877
0.007267
0.01319
0.02453
0.04285
0.06882
0.102
0.1193
0.1464
0.1676
0.2044
0.2406
0.296
0.2765
0.2752
0.2613
0.2507
0.2443
0.2528
0.2538
0.2661
0.2814
0.2881
0.2883
0.2934
0.29
0.2844
0.2802
0.2664
0.2544
0.2423
0.2332
0.2184
0.2027
0.1835
0.1701
0.1581
0.1517
0.1474
0.146
0.1388
0.1329
0.124
0.1152
0.1104
0.1042
0.0981
0.09357
0.09256
0.09327
0.09693
0.09362
0.08748
0.07914
0.07382
0.06978
0.06767
0.06954
0.07216
0.0782
0.08682
0.09676
0.1042
0.1116
0.113
0.1204
0.1284
0.1289
0.1325
0.138
0.1437
0.168
0.1968
0.2164
0.2249
0.2289
0.2299
0.2354
0.2542
0.2795
0.3075
0.3288
0.348
0.3569
0.3609
0.362
0.355
0.3441
0.3457
0.3598
0.3749
0.3886
0.3981
0.3967
0.3973
0.4034
0.4129
0.426
0.4397
0.4427
0.4317
0.4156
0.4123
0.419
0.4309
0.4384
0.4371
0.4291
0.4236
0.4212
0.4191
0.4184
0.4093
0.3938
0.3722
0.3517
0.337
0.335
0.3362
0.338
0.3403
0.3433
0.342
0.3387
0.3341
0.3302
0.3276
0.337
0.3503
0.3556
0.356
0.3413
0.3212
0.3003
0.2939
0.2902
0.2936
0.2954
0.2994
0.3041
0.3123
0.3128
0.3142
0.3241
0.3534
0.3743
0.4135
0.4616
0.5411
0.625
0.73
0.821
0.8883
0.9366
0.9683
0.9832
0.002673
0.002815
0.003364
0.004847
0.009013
0.01767
0.0312
0.05668
0.09097
0.1267
0.157
0.1442
0.1509
0.1703
0.2255
0.2702
0.3543
0.3201
0.3177
0.3177
0.3194
0.3231
0.3329
0.3226
0.352
0.4093
0.4631
0.5011
0.5257
0.5102
0.4775
0.4453
0.4163
0.4062
0.4147
0.4123
0.3791
0.3542
0.3334
0.3243
0.2944
0.2601
0.2296
0.2299
0.2433
0.274
0.2846
0.2773
0.2666
0.2498
0.2339
0.2126
0.2088
0.2075
0.2165
0.21
0.2042
0.1945
0.1826
0.167
0.1566
0.1534
0.1587
0.166
0.1724
0.1738
0.1799
0.1841
0.1843
0.1934
0.2042
0.2048
0.2244
0.2569
0.2847
0.319
0.3569
0.3716
0.3785
0.4021
0.4085
0.4145
0.4332
0.4586
0.4848
0.5083
0.5251
0.5323
0.5383
0.542
0.5363
0.5323
0.5403
0.5573
0.5787
0.5945
0.6046
0.6051
0.6064
0.6071
0.6071
0.6085
0.6125
0.6126
0.6073
0.6006
0.597
0.5974
0.5991
0.5981
0.591
0.5827
0.5763
0.5748
0.5664
0.5558
0.536
0.5144
0.4903
0.4784
0.4711
0.4738
0.4764
0.4795
0.4828
0.4865
0.4876
0.4874
0.4866
0.4865
0.4879
0.4929
0.4984
0.491
0.4802
0.461
0.4445
0.4354
0.4441
0.4531
0.4661
0.4758
0.4835
0.4941
0.5101
0.5178
0.526
0.538
0.5705
0.604
0.6547
0.7064
0.7621
0.8189
0.8799
0.9257
0.9568
0.9753
0.9861
0.9915
0.004055
0.004956
0.006767
0.01139
0.02271
0.04156
0.06569
0.1026
0.1408
0.1647
0.181
0.1481
0.1332
0.1374
0.1938
0.245
0.3338
0.3135
0.3066
0.3262
0.3782
0.4166
0.4389
0.4127
0.3897
0.3885
0.3994
0.4364
0.4763
0.4713
0.4455
0.4243
0.4251
0.457
0.5159
0.5378
0.5172
0.4973
0.4818
0.4388
0.3573
0.3061
0.309
0.4319
0.596
0.6984
0.7208
0.7008
0.653
0.5986
0.5704
0.5349
0.5041
0.4702
0.4905
0.5202
0.574
0.5964
0.5819
0.5121
0.4307
0.3453
0.2809
0.2574
0.2507
0.2497
0.2766
0.2982
0.3075
0.3253
0.3491
0.3596
0.4033
0.4524
0.4741
0.4951
0.5122
0.5229
0.5368
0.5652
0.5806
0.5925
0.6048
0.6201
0.6339
0.6463
0.6559
0.6611
0.6664
0.6723
0.6774
0.6779
0.6852
0.696
0.7075
0.7183
0.7249
0.7254
0.7265
0.7246
0.7207
0.7161
0.7125
0.7085
0.7041
0.6991
0.6932
0.6898
0.6847
0.6757
0.661
0.6482
0.6381
0.6351
0.6263
0.6139
0.5934
0.5731
0.5549
0.5483
0.5446
0.548
0.5515
0.5554
0.5594
0.5638
0.568
0.5722
0.5765
0.5813
0.5863
0.5927
0.6008
0.598
0.5928
0.5801
0.5748
0.5753
0.588
0.5982
0.6093
0.6188
0.6282
0.6402
0.6569
0.6696
0.6846
0.704
0.7318
0.7643
0.8037
0.8389
0.8738
0.9077
0.9399
0.9633
0.9783
0.9865
0.9912
0.9941
0.006269
0.008511
0.01276
0.02251
0.04333
0.07173
0.1045
0.1433
0.1783
0.1844
0.1839
0.1397
0.1061
0.1129
0.1521
0.2135
0.3046
0.3297
0.3273
0.3828
0.4772
0.5146
0.5374
0.5203
0.484
0.4471
0.4064
0.3794
0.3987
0.4022
0.4104
0.4153
0.4738
0.5636
0.6669
0.7184
0.7285
0.7272
0.729
0.6976
0.6446
0.614
0.6536
0.7771
0.8873
0.934
0.9427
0.9315
0.9038
0.8693
0.8538
0.8472
0.8471
0.8437
0.8578
0.8716
0.8912
0.8932
0.8773
0.8264
0.7486
0.6479
0.5324
0.4629
0.4315
0.4248
0.4603
0.485
0.497
0.4988
0.5203
0.5297
0.5762
0.6145
0.6279
0.6319
0.6342
0.6381
0.6484
0.6696
0.684
0.6948
0.706
0.719
0.733
0.744
0.7516
0.7551
0.76
0.7653
0.768
0.7685
0.7718
0.7761
0.7814
0.7856
0.7868
0.785
0.7839
0.7797
0.774
0.7649
0.7577
0.7532
0.7519
0.7494
0.7463
0.7433
0.7372
0.7268
0.7123
0.6983
0.6871
0.6832
0.6756
0.6642
0.6448
0.6296
0.619
0.6196
0.6218
0.6271
0.6318
0.6361
0.6406
0.6451
0.6499
0.6547
0.6599
0.6653
0.671
0.6782
0.6873
0.6895
0.691
0.6939
0.6991
0.7071
0.7206
0.7305
0.7388
0.7477
0.7573
0.7684
0.7821
0.7947
0.8086
0.8246
0.843
0.8632
0.8846
0.9061
0.9285
0.9495
0.9672
0.9794
0.9863
0.9902
0.9928
0.9943
0.01122
0.01554
0.0233
0.0395
0.06971
0.1038
0.1425
0.179
0.2047
0.1983
0.1897
0.1423
0.1
0.1067
0.149
0.2346
0.3557
0.4006
0.3662
0.398
0.4556
0.4994
0.5504
0.5775
0.5747
0.5253
0.4349
0.3472
0.3258
0.3516
0.4198
0.5068
0.6207
0.7383
0.8334
0.8774
0.8924
0.8956
0.8998
0.8833
0.8691
0.8657
0.9019
0.9483
0.9793
0.9893
0.9906
0.9875
0.9792
0.9703
0.9691
0.9727
0.9773
0.979
0.9823
0.9833
0.9841
0.9805
0.9702
0.9437
0.8925
0.8108
0.6952
0.615
0.5813
0.5825
0.6077
0.6256
0.633
0.6406
0.6573
0.6676
0.6941
0.7148
0.7218
0.7221
0.7242
0.7334
0.7445
0.7607
0.7711
0.7783
0.7853
0.7936
0.8021
0.8094
0.8143
0.8154
0.8192
0.8241
0.8284
0.8316
0.8332
0.8331
0.8336
0.8331
0.8299
0.8257
0.8217
0.8156
0.8098
0.8026
0.7956
0.7898
0.7876
0.7848
0.7822
0.7799
0.7758
0.7675
0.7561
0.743
0.7339
0.731
0.7273
0.721
0.7139
0.7093
0.7087
0.7148
0.7201
0.7247
0.7291
0.7332
0.7375
0.742
0.7467
0.7513
0.7557
0.7603
0.7653
0.7716
0.7795
0.7848
0.7896
0.7953
0.8014
0.8084
0.8172
0.824
0.8303
0.8374
0.8449
0.8534
0.8633
0.8741
0.886
0.8981
0.9097
0.9202
0.9319
0.9454
0.9595
0.9719
0.9812
0.9867
0.99
0.9921
0.9934
0.9941
0.02097
0.02826
0.03847
0.05965
0.09531
0.1337
0.1761
0.2037
0.2106
0.1919
0.1703
0.1441
0.1211
0.1465
0.216
0.3026
0.3332
0.2842
0.2327
0.2672
0.3747
0.4672
0.5466
0.5926
0.6151
0.5937
0.5179
0.3988
0.3372
0.3776
0.4854
0.6057
0.7346
0.8445
0.9134
0.9419
0.9524
0.9533
0.9558
0.9513
0.9536
0.9613
0.9763
0.9885
0.9956
0.9976
0.9977
0.9968
0.9947
0.9929
0.9938
0.9957
0.9972
0.9979
0.9982
0.998
0.9973
0.9952
0.9894
0.9731
0.9367
0.8725
0.7828
0.7196
0.6958
0.694
0.7093
0.7234
0.7302
0.7346
0.7402
0.7427
0.7547
0.7683
0.7812
0.7922
0.8019
0.8131
0.8222
0.8308
0.8375
0.8424
0.8465
0.8513
0.8561
0.86
0.8631
0.8642
0.8654
0.8663
0.8665
0.8662
0.8663
0.8669
0.8684
0.8671
0.8618
0.8536
0.8458
0.8379
0.8332
0.8286
0.8236
0.8196
0.8182
0.8168
0.8161
0.8157
0.8147
0.8104
0.8043
0.7975
0.7924
0.7907
0.79
0.7882
0.7864
0.7861
0.7878
0.7924
0.7965
0.8001
0.8034
0.8067
0.8103
0.8142
0.8189
0.8236
0.8281
0.8324
0.8365
0.8411
0.8466
0.8531
0.8599
0.8674
0.874
0.88
0.8853
0.89
0.8946
0.8997
0.9049
0.9106
0.9167
0.9232
0.9298
0.9365
0.9425
0.9478
0.9561
0.9662
0.9759
0.9836
0.9883
0.9907
0.9922
0.9936
0.9941
0.9939
0.03586
0.0441
0.05694
0.08549
0.1268
0.1701
0.1987
0.1979
0.1758
0.1629
0.1519
0.1581
0.1665
0.2241
0.3092
0.3474
0.3093
0.2183
0.1603
0.1734
0.2386
0.2999
0.383
0.4485
0.4708
0.4758
0.4163
0.3119
0.265
0.3305
0.4601
0.5958
0.7382
0.8569
0.9257
0.9547
0.9642
0.9643
0.9638
0.962
0.9697
0.9803
0.9903
0.9959
0.9983
0.9989
0.9988
0.9982
0.9974
0.9973
0.9982
0.9991
0.9995
0.9997
0.9997
0.9995
0.999
0.9972
0.9912
0.9743
0.9381
0.8775
0.8071
0.7625
0.7515
0.7542
0.7626
0.7726
0.7811
0.7909
0.7998
0.8064
0.8131
0.8214
0.8302
0.8386
0.8454
0.8526
0.8581
0.8634
0.868
0.872
0.8748
0.8779
0.8811
0.8842
0.8867
0.8882
0.8893
0.8902
0.891
0.8918
0.8931
0.8932
0.893
0.889
0.8813
0.8717
0.8629
0.856
0.8539
0.8524
0.8501
0.8479
0.8463
0.8449
0.844
0.8436
0.8434
0.8417
0.8393
0.8368
0.835
0.8348
0.837
0.8397
0.8428
0.846
0.8492
0.8522
0.855
0.8576
0.8603
0.8632
0.8665
0.8701
0.8743
0.8783
0.8818
0.8852
0.8884
0.8918
0.8955
0.8995
0.9034
0.9078
0.9119
0.9161
0.9202
0.9239
0.9275
0.9311
0.9348
0.9387
0.9427
0.9469
0.951
0.9549
0.9584
0.9612
0.9685
0.977
0.9846
0.9892
0.9917
0.9927
0.9933
0.9939
0.9936
0.9922
0.05236
0.06152
0.07684
0.1127
0.1575
0.2102
0.2076
0.1725
0.1363
0.1307
0.1331
0.1738
0.2253
0.2925
0.2745
0.2469
0.1852
0.1223
0.1043
0.1275
0.1774
0.1931
0.2054
0.2162
0.2209
0.236
0.261
0.2451
0.2298
0.2692
0.3224
0.4148
0.5675
0.7426
0.8631
0.9164
0.934
0.9304
0.9214
0.9229
0.9471
0.9719
0.9884
0.9953
0.9978
0.9984
0.9983
0.9978
0.9976
0.9983
0.9992
0.9997
0.9998
0.9999
0.9998
0.9996
0.9986
0.9951
0.9841
0.9558
0.9113
0.8572
0.8145
0.7937
0.7924
0.7962
0.8003
0.8045
0.8101
0.8171
0.8239
0.8308
0.8372
0.8437
0.8502
0.8564
0.8618
0.867
0.872
0.8776
0.8827
0.8874
0.8917
0.8957
0.8993
0.9028
0.9056
0.9073
0.9087
0.9099
0.9113
0.9131
0.9141
0.9122
0.9091
0.9023
0.8933
0.8835
0.8767
0.8713
0.87
0.8698
0.8693
0.8688
0.8682
0.8677
0.8672
0.867
0.8672
0.8674
0.8678
0.8684
0.8693
0.8707
0.8725
0.8745
0.8767
0.8789
0.8812
0.8836
0.8862
0.8887
0.8914
0.8942
0.8974
0.9006
0.9042
0.9076
0.9107
0.9138
0.9165
0.9192
0.9219
0.9247
0.9273
0.9303
0.9333
0.9364
0.9395
0.9425
0.9453
0.9481
0.9508
0.9536
0.9565
0.9594
0.9621
0.9646
0.9668
0.9683
0.9742
0.9809
0.9871
0.9908
0.9929
0.9934
0.9935
0.9934
0.9918
0.9885
0.06457
0.07548
0.09851
0.1405
0.1851
0.2349
0.2115
0.1714
0.1369
0.1501
0.1607
0.2473
0.3071
0.2687
0.1875
0.1476
0.1074
0.09365
0.08926
0.09437
0.1119
0.132
0.1624
0.1593
0.146
0.1391
0.1553
0.1569
0.1601
0.1815
0.1801
0.1845
0.2146
0.4027
0.6202
0.7429
0.7832
0.7499
0.6823
0.6676
0.7518
0.8696
0.9505
0.9812
0.9913
0.9942
0.9948
0.9951
0.9963
0.9979
0.9991
0.9996
0.9997
0.9997
0.9995
0.9984
0.9946
0.9827
0.9522
0.8979
0.8422
0.799
0.783
0.7833
0.7922
0.8007
0.8072
0.8123
0.8178
0.8248
0.8317
0.8384
0.8445
0.8497
0.8545
0.8592
0.8642
0.8706
0.8786
0.8863
0.8928
0.898
0.9025
0.907
0.9118
0.9157
0.9188
0.9206
0.9221
0.9237
0.9256
0.9267
0.9257
0.9209
0.9141
0.9045
0.8961
0.8899
0.8863
0.8832
0.8826
0.8824
0.8821
0.8818
0.8815
0.8812
0.881
0.8812
0.8816
0.8824
0.8837
0.8852
0.8868
0.8884
0.89
0.8916
0.8934
0.8956
0.898
0.9005
0.9032
0.9061
0.9089
0.9119
0.9149
0.918
0.9211
0.9241
0.9269
0.9297
0.9322
0.9346
0.9368
0.939
0.9412
0.9437
0.9463
0.9489
0.9514
0.9538
0.956
0.9581
0.9602
0.9622
0.9643
0.9664
0.9683
0.9701
0.9715
0.9724
0.9768
0.9815
0.9866
0.9898
0.9919
0.9923
0.9922
0.9911
0.9876
0.9816
0.06617
0.08231
0.1146
0.1636
0.2019
0.231
0.2007
0.1699
0.1618
0.1948
0.2365
0.3099
0.272
0.1833
0.1245
0.09917
0.09083
0.1034
0.1028
0.09835
0.1071
0.1232
0.134
0.133
0.1253
0.1168
0.1321
0.1472
0.1603
0.1755
0.1459
0.12
0.1058
0.1339
0.1929
0.2952
0.3767
0.2908
0.1745
0.1293
0.1711
0.3649
0.7163
0.8877
0.9511
0.974
0.9827
0.9876
0.9921
0.9958
0.998
0.9989
0.999
0.9986
0.9968
0.9907
0.9735
0.9375
0.8743
0.8036
0.7633
0.7502
0.7609
0.7743
0.7857
0.7948
0.8012
0.8069
0.8133
0.8211
0.8286
0.8352
0.8408
0.8448
0.8488
0.8534
0.8596
0.8694
0.8808
0.8906
0.8988
0.9046
0.9093
0.9139
0.9186
0.9224
0.9255
0.9276
0.9297
0.9306
0.9312
0.9299
0.9261
0.9186
0.9093
0.8995
0.8925
0.8889
0.8877
0.8868
0.887
0.887
0.8868
0.8868
0.8868
0.8869
0.8871
0.8876
0.8885
0.8898
0.8914
0.8932
0.8948
0.8965
0.8982
0.9001
0.9023
0.9049
0.9077
0.9105
0.9136
0.9167
0.9197
0.9229
0.9259
0.9286
0.9315
0.9343
0.937
0.9396
0.942
0.9441
0.9461
0.9482
0.9503
0.9525
0.9546
0.9567
0.9587
0.9606
0.9624
0.9642
0.9659
0.9675
0.969
0.9705
0.972
0.9732
0.9742
0.9748
0.9771
0.9797
0.9832
0.9867
0.9894
0.99
0.9896
0.9866
0.9808
0.9723
0.06337
0.08503
0.1278
0.182
0.2135
0.2137
0.1867
0.1811
0.2323
0.2784
0.2917
0.2851
0.2115
0.1399
0.1022
0.09606
0.1025
0.09924
0.0895
0.07505
0.07431
0.0885
0.1007
0.1203
0.1301
0.1321
0.1426
0.1654
0.1595
0.1639
0.1387
0.1084
0.0805
0.08183
0.0844
0.1001
0.1161
0.09629
0.06251
0.04489
0.04373
0.06097
0.1548
0.5052
0.7666
0.8866
0.9355
0.9615
0.9768
0.9865
0.992
0.9942
0.9934
0.9893
0.9789
0.9521
0.898
0.8321
0.7604
0.7138
0.7078
0.7206
0.7383
0.7558
0.7698
0.7802
0.7878
0.7937
0.8006
0.8084
0.8162
0.823
0.8285
0.8322
0.8361
0.8414
0.8495
0.8625
0.8765
0.8885
0.8976
0.904
0.909
0.9136
0.9184
0.9215
0.9241
0.9251
0.926
0.925
0.9236
0.9199
0.9141
0.9041
0.8951
0.8868
0.8829
0.8826
0.8835
0.884
0.8843
0.8845
0.8847
0.8852
0.8857
0.8864
0.8871
0.8881
0.8893
0.8908
0.8927
0.8946
0.8965
0.8987
0.901
0.9037
0.9067
0.9099
0.9131
0.9165
0.9199
0.9234
0.9267
0.9299
0.9329
0.9357
0.9384
0.941
0.9435
0.9458
0.948
0.9501
0.9522
0.9543
0.9563
0.9583
0.9601
0.9618
0.9635
0.965
0.9665
0.9679
0.9693
0.9706
0.9718
0.973
0.9741
0.975
0.9757
0.976
0.9766
0.9781
0.9808
0.9846
0.9873
0.9885
0.9874
0.9829
0.9744
0.9638
0.05956
0.08686
0.1419
0.197
0.2191
0.2034
0.1895
0.2144
0.3046
0.336
0.3315
0.2609
0.2098
0.1585
0.1237
0.09052
0.04646
0.02397
0.01685
0.01746
0.02777
0.05222
0.07652
0.09927
0.1296
0.1468
0.1508
0.1881
0.1791
0.1695
0.1491
0.1315
0.1026
0.09488
0.08469
0.08024
0.08447
0.08048
0.06418
0.05402
0.04359
0.04354
0.05933
0.1174
0.2764
0.6114
0.7724
0.8624
0.9129
0.9423
0.9584
0.9644
0.9578
0.9365
0.8995
0.8371
0.7593
0.7065
0.6663
0.6547
0.6664
0.6868
0.7088
0.7281
0.744
0.7559
0.766
0.7732
0.7817
0.7899
0.7979
0.8044
0.8096
0.8128
0.8166
0.8223
0.8316
0.8462
0.8616
0.8752
0.8861
0.8948
0.9013
0.9063
0.9101
0.9119
0.9129
0.9118
0.9107
0.9071
0.9033
0.8967
0.8896
0.8812
0.8756
0.8712
0.871
0.8724
0.8733
0.874
0.8745
0.8752
0.876
0.8771
0.8783
0.8797
0.8811
0.8826
0.8844
0.8868
0.8896
0.8923
0.8951
0.8979
0.9011
0.9048
0.9087
0.9127
0.9165
0.9204
0.9242
0.9279
0.9313
0.9344
0.9374
0.9401
0.9428
0.9454
0.9479
0.9501
0.9522
0.9542
0.9562
0.9582
0.9601
0.9618
0.9634
0.965
0.9664
0.9677
0.969
0.9703
0.9714
0.9725
0.9735
0.9744
0.9752
0.9758
0.9761
0.9761
0.9764
0.9781
0.9808
0.9846
0.9872
0.9887
0.9876
0.9837
0.9761
0.9678
0.05622
0.08943
0.159
0.2146
0.2219
0.1938
0.1891
0.2434
0.344
0.3953
0.3865
0.2961
0.2517
0.2552
0.1524
0.04882
0.0123
0.00345
0.002317
0.00391
0.01206
0.04397
0.08981
0.1179
0.1532
0.165
0.1742
0.2052
0.1958
0.1771
0.168
0.1724
0.1456
0.1379
0.1175
0.1065
0.1051
0.1122
0.1072
0.1017
0.0839
0.06761
0.06133
0.07925
0.1162
0.2186
0.408
0.5925
0.7104
0.7816
0.8167
0.8259
0.8106
0.7764
0.7368
0.6853
0.6349
0.6037
0.589
0.6013
0.6239
0.6476
0.6704
0.6897
0.7074
0.7218
0.7347
0.7447
0.7552
0.7637
0.7727
0.7794
0.7843
0.7865
0.7898
0.7962
0.8059
0.8197
0.8339
0.8472
0.86
0.8714
0.8802
0.8867
0.8901
0.8907
0.8892
0.8851
0.881
0.874
0.8678
0.861
0.8559
0.8512
0.8501
0.8498
0.8517
0.853
0.8542
0.8553
0.8565
0.8578
0.8594
0.8612
0.8633
0.8655
0.8677
0.8702
0.873
0.8769
0.8812
0.8854
0.8895
0.8937
0.8982
0.903
0.908
0.9127
0.9172
0.9215
0.9256
0.9294
0.9329
0.9362
0.9393
0.9423
0.9451
0.9479
0.9504
0.9527
0.9548
0.9568
0.9587
0.9607
0.9624
0.964
0.9655
0.9669
0.9682
0.9694
0.9706
0.9716
0.9726
0.9736
0.9744
0.975
0.9755
0.9757
0.9755
0.9759
0.9776
0.981
0.9843
0.9877
0.9892
0.9901
0.9898
0.9874
0.982
0.9744
0.04958
0.08509
0.1589
0.2133
0.214
0.1982
0.2076
0.2551
0.3408
0.446
0.4798
0.4718
0.4827
0.408
0.1131
0.01819
0.002826
0.0006584
0.0006798
0.002537
0.01421
0.06433
0.1215
0.1313
0.1496
0.1468
0.1629
0.195
0.1917
0.1683
0.1752
0.1844
0.1709
0.1731
0.1527
0.1389
0.1384
0.1538
0.1644
0.1654
0.1497
0.127
0.1101
0.1143
0.1281
0.1628
0.2094
0.2728
0.3577
0.4583
0.5316
0.5698
0.5804
0.5706
0.5553
0.5358
0.5188
0.5208
0.5304
0.5543
0.5808
0.6054
0.6264
0.6444
0.6618
0.6776
0.6923
0.7059
0.719
0.7299
0.7398
0.7467
0.7516
0.754
0.7575
0.7633
0.7716
0.7819
0.792
0.8037
0.8161
0.829
0.8406
0.8496
0.8534
0.8539
0.8501
0.8425
0.8342
0.8258
0.8184
0.8142
0.8133
0.8136
0.8162
0.8183
0.8202
0.8219
0.8237
0.8256
0.8277
0.83
0.8325
0.8352
0.8382
0.8418
0.8459
0.8505
0.8553
0.8612
0.8676
0.8738
0.88
0.8862
0.8923
0.8986
0.905
0.9106
0.9158
0.9206
0.9251
0.9292
0.9331
0.9366
0.94
0.9432
0.9463
0.9492
0.9518
0.9541
0.9563
0.9583
0.9602
0.9621
0.9638
0.9653
0.9666
0.968
0.9692
0.9703
0.9714
0.9723
0.9732
0.974
0.9745
0.9749
0.9749
0.9755
0.9763
0.9781
0.9812
0.985
0.9881
0.9904
0.9916
0.9923
0.9927
0.9909
0.9867
0.9779
0.04029
0.07435
0.1459
0.2
0.1959
0.2159
0.2525
0.3035
0.3801
0.5014
0.5695
0.5729
0.5771
0.4331
0.06299
0.007455
0.001154
0.0003487
0.000547
0.002866
0.01952
0.0869
0.1633
0.1723
0.1944
0.1744
0.1712
0.1836
0.1776
0.158
0.1698
0.1899
0.1951
0.1864
0.1702
0.1518
0.1461
0.1561
0.1641
0.1696
0.1745
0.1734
0.1804
0.1858
0.1874
0.1825
0.1788
0.184
0.2124
0.2476
0.2772
0.308
0.3319
0.3625
0.3941
0.4203
0.437
0.4618
0.4841
0.51
0.5365
0.5605
0.5794
0.5952
0.6108
0.6275
0.6443
0.662
0.6771
0.6892
0.6994
0.7067
0.7117
0.7153
0.7191
0.7239
0.7302
0.736
0.7412
0.7492
0.7573
0.7668
0.7782
0.7887
0.7937
0.7961
0.7912
0.7809
0.7697
0.7621
0.7582
0.7592
0.7628
0.7659
0.7687
0.7711
0.7735
0.776
0.7786
0.7811
0.7837
0.7864
0.7893
0.7932
0.7982
0.8049
0.8125
0.8211
0.8292
0.8381
0.8468
0.855
0.8631
0.8712
0.8789
0.8866
0.8952
0.9035
0.9112
0.9181
0.9238
0.9283
0.9324
0.9363
0.9399
0.9434
0.9466
0.9496
0.9523
0.9547
0.9569
0.959
0.9609
0.9627
0.9644
0.9658
0.9672
0.9684
0.9695
0.9706
0.9715
0.9724
0.9731
0.9736
0.9738
0.9737
0.9741
0.9763
0.9787
0.9819
0.9853
0.9885
0.9905
0.992
0.9924
0.9925
0.9926
0.9904
0.9858
0.9754
0.03741
0.07066
0.1376
0.198
0.1946
0.2456
0.3156
0.3546
0.3951
0.498
0.5932
0.5918
0.5385
0.2613
0.03414
0.004758
0.001316
0.0007632
0.001664
0.009188
0.05
0.144
0.2216
0.2189
0.2364
0.2082
0.1948
0.1906
0.1811
0.1651
0.1773
0.1946
0.2074
0.1937
0.175
0.1587
0.1555
0.1646
0.1707
0.1747
0.1776
0.1723
0.1757
0.1797
0.1797
0.1738
0.167
0.1661
0.1742
0.1877
0.1993
0.2173
0.2346
0.2707
0.3116
0.3537
0.3823
0.4117
0.4379
0.4629
0.4886
0.5116
0.5297
0.545
0.5611
0.5776
0.5942
0.613
0.628
0.6401
0.6489
0.6568
0.6631
0.6684
0.6725
0.6764
0.6799
0.6818
0.6824
0.6862
0.687
0.6879
0.6924
0.6962
0.6946
0.6955
0.6928
0.6867
0.6849
0.6853
0.6853
0.6891
0.6932
0.6968
0.7
0.7031
0.7062
0.7089
0.7111
0.7123
0.7132
0.7169
0.7236
0.7335
0.7451
0.758
0.7702
0.7836
0.7957
0.8078
0.8192
0.8298
0.8398
0.8495
0.8589
0.8682
0.8795
0.8904
0.9005
0.9101
0.9185
0.925
0.9307
0.9355
0.9393
0.943
0.9463
0.9494
0.9521
0.9546
0.9569
0.9591
0.961
0.9627
0.9643
0.9657
0.967
0.9681
0.9692
0.9701
0.9709
0.9716
0.972
0.9722
0.972
0.9724
0.9744
0.9784
0.9823
0.9862
0.9889
0.9907
0.9914
0.9917
0.9907
0.9891
0.9884
0.9855
0.9796
0.966
0.03899
0.07275
0.1394
0.2125
0.2254
0.3132
0.4116
0.4291
0.4183
0.4686
0.5097
0.4773
0.4255
0.1758
0.03262
0.007793
0.004475
0.004747
0.01193
0.0408
0.1244
0.2125
0.2417
0.2313
0.2565
0.2377
0.2283
0.2029
0.1847
0.1778
0.1933
0.2074
0.2118
0.1975
0.1723
0.1595
0.1584
0.1582
0.1611
0.1622
0.1623
0.1598
0.1648
0.1739
0.1821
0.1832
0.1785
0.1773
0.1769
0.1837
0.1872
0.202
0.2166
0.2494
0.2836
0.3174
0.3437
0.3723
0.3971
0.4165
0.4409
0.464
0.4837
0.4993
0.5165
0.5311
0.5472
0.564
0.5764
0.5843
0.5922
0.6001
0.6069
0.6124
0.6157
0.6172
0.6173
0.6169
0.6144
0.6145
0.6112
0.6037
0.6004
0.5952
0.5833
0.5796
0.5785
0.5755
0.5811
0.5878
0.5884
0.5922
0.5956
0.5984
0.6002
0.6023
0.6043
0.6097
0.6158
0.6208
0.625
0.6335
0.6442
0.6607
0.6798
0.7002
0.7182
0.7371
0.7542
0.7703
0.7847
0.7977
0.8098
0.8219
0.8334
0.8447
0.8583
0.8717
0.8846
0.8968
0.9073
0.9168
0.9254
0.9326
0.9378
0.9421
0.9454
0.9484
0.9512
0.9538
0.9562
0.9584
0.9603
0.9619
0.9634
0.9647
0.9659
0.9669
0.9678
0.9686
0.9692
0.9696
0.9697
0.9695
0.9698
0.972
0.9762
0.9815
0.986
0.989
0.9902
0.9907
0.9899
0.9887
0.9855
0.9821
0.978
0.9728
0.9637
0.9475
0.04271
0.07471
0.1456
0.2291
0.2927
0.4209
0.5055
0.525
0.4593
0.3934
0.3348
0.3151
0.3095
0.1758
0.05339
0.02035
0.01869
0.02558
0.05711
0.1209
0.2027
0.2383
0.2369
0.232
0.2565
0.2477
0.2479
0.2139
0.1925
0.1834
0.1832
0.1873
0.1894
0.1761
0.155
0.149
0.1511
0.1542
0.1583
0.163
0.1674
0.1679
0.1729
0.1813
0.1898
0.1945
0.1941
0.1966
0.1959
0.2024
0.2091
0.222
0.2336
0.257
0.2803
0.3036
0.3229
0.3448
0.3663
0.3836
0.4058
0.4272
0.4478
0.4628
0.4806
0.4911
0.5034
0.5163
0.5241
0.5288
0.5349
0.5408
0.5456
0.5488
0.5489
0.5468
0.5428
0.5398
0.5355
0.5337
0.5278
0.5166
0.5103
0.4966
0.4787
0.4686
0.4706
0.4774
0.4868
0.4937
0.4912
0.4887
0.487
0.4878
0.4873
0.4877
0.491
0.498
0.5067
0.5148
0.5215
0.5349
0.5504
0.5764
0.6046
0.6328
0.6576
0.683
0.7059
0.7271
0.7459
0.7628
0.7786
0.7939
0.8077
0.8209
0.836
0.8505
0.864
0.878
0.8906
0.9034
0.9157
0.9264
0.934
0.94
0.9437
0.9466
0.9494
0.952
0.9545
0.9566
0.9584
0.9599
0.9612
0.9624
0.9634
0.9643
0.965
0.9655
0.9659
0.966
0.9672
0.9685
0.9712
0.9753
0.9802
0.9848
0.9883
0.9898
0.9895
0.9882
0.985
0.9811
0.974
0.9672
0.9595
0.9527
0.9425
0.9266
0.0484
0.08297
0.1618
0.2675
0.4001
0.4948
0.5448
0.5832
0.5266
0.3637
0.232
0.2218
0.2098
0.1612
0.08884
0.05404
0.05948
0.09068
0.137
0.1726
0.1983
0.2073
0.2331
0.2529
0.2747
0.2719
0.2698
0.2416
0.2134
0.2002
0.195
0.1887
0.1856
0.1778
0.1629
0.159
0.1589
0.1616
0.1641
0.1672
0.1715
0.174
0.1787
0.1845
0.1903
0.1961
0.2019
0.2118
0.2204
0.2288
0.2381
0.2469
0.2551
0.2693
0.2818
0.2965
0.3133
0.3311
0.3479
0.3618
0.3802
0.4003
0.4193
0.4322
0.4489
0.4543
0.4618
0.4684
0.475
0.4781
0.4839
0.4859
0.4848
0.4814
0.476
0.47
0.4621
0.4552
0.4479
0.4448
0.4406
0.4325
0.4293
0.42
0.403
0.3985
0.3971
0.3998
0.4003
0.3955
0.3813
0.3723
0.3714
0.3769
0.3778
0.3727
0.3714
0.3744
0.385
0.3995
0.4157
0.4415
0.4701
0.5057
0.543
0.573
0.5991
0.6264
0.6527
0.679
0.7048
0.7279
0.7489
0.7684
0.7854
0.8003
0.8155
0.8301
0.8437
0.8583
0.8715
0.8853
0.9016
0.9172
0.9283
0.9363
0.9408
0.9433
0.946
0.9486
0.9511
0.9531
0.9547
0.956
0.9571
0.9581
0.959
0.9597
0.9621
0.965
0.9679
0.9698
0.9724
0.9739
0.9767
0.9802
0.9843
0.9868
0.9884
0.9881
0.9854
0.981
0.9726
0.964
0.9539
0.9441
0.9322
0.9261
0.9211
0.9098
0.04939
0.08328
0.171
0.2958
0.4823
0.5188
0.5417
0.5925
0.5754
0.4285
0.241
0.1803
0.1468
0.1356
0.105
0.08939
0.09716
0.1479
0.1964
0.2114
0.2089
0.217
0.2466
0.2736
0.2986
0.2968
0.2786
0.2519
0.229
0.2002
0.1842
0.1782
0.1742
0.1707
0.1653
0.1632
0.1613
0.166
0.17
0.1743
0.1788
0.1858
0.193
0.2001
0.2049
0.2119
0.2214
0.2304
0.2384
0.2437
0.2515
0.2594
0.2712
0.2844
0.297
0.3099
0.3236
0.3366
0.3491
0.3598
0.372
0.3855
0.3971
0.4075
0.4198
0.4212
0.4221
0.4235
0.4284
0.4314
0.4372
0.4342
0.4257
0.417
0.4072
0.3975
0.3855
0.3741
0.3607
0.3506
0.3434
0.3375
0.3397
0.3383
0.3188
0.3032
0.2888
0.2821
0.2791
0.2772
0.2638
0.2579
0.2618
0.2695
0.2798
0.284
0.2877
0.294
0.3092
0.3237
0.3449
0.378
0.4156
0.4576
0.4992
0.5284
0.5553
0.5837
0.6111
0.6392
0.669
0.6971
0.7239
0.7494
0.7708
0.7883
0.8031
0.8163
0.8282
0.8409
0.8532
0.8667
0.8845
0.9027
0.9182
0.9289
0.9351
0.9378
0.9401
0.9427
0.9451
0.9471
0.9507
0.9549
0.9591
0.9625
0.9647
0.9653
0.9681
0.9702
0.9716
0.9719
0.9731
0.9735
0.9769
0.9798
0.9832
0.9848
0.9853
0.9829
0.9765
0.9652
0.9511
0.937
0.9262
0.9189
0.9119
0.9092
0.907
0.8938
0.04289
0.07531
0.164
0.3181
0.556
0.5537
0.5358
0.5532
0.559
0.4069
0.2386
0.156
0.1224
0.1167
0.121
0.1315
0.1397
0.1903
0.2391
0.2575
0.2383
0.2498
0.2773
0.3124
0.3414
0.3333
0.2974
0.2574
0.2369
0.221
0.2015
0.1953
0.1899
0.1759
0.1633
0.1586
0.1534
0.1558
0.1663
0.1751
0.183
0.1912
0.2004
0.2098
0.2177
0.2287
0.243
0.2543
0.2623
0.2674
0.2712
0.2758
0.2877
0.2982
0.3108
0.3245
0.3396
0.3523
0.364
0.373
0.3794
0.3845
0.3869
0.3896
0.3989
0.3961
0.3937
0.3905
0.3907
0.3898
0.3948
0.3878
0.3749
0.3626
0.35
0.3382
0.3249
0.3114
0.2984
0.2876
0.2746
0.2647
0.2538
0.2441
0.2242
0.2084
0.1932
0.1897
0.185
0.1842
0.1706
0.1657
0.173
0.1901
0.208
0.2222
0.2298
0.2401
0.2629
0.2857
0.3126
0.3436
0.386
0.4278
0.4684
0.4962
0.526
0.5548
0.5831
0.6122
0.6428
0.6723
0.7021
0.7318
0.7566
0.7769
0.7932
0.8069
0.8193
0.8309
0.841
0.8509
0.8662
0.8861
0.9084
0.9257
0.9371
0.9429
0.9459
0.9479
0.9501
0.9521
0.9568
0.962
0.9655
0.9673
0.9676
0.9657
0.9673
0.9691
0.9707
0.97
0.9701
0.9692
0.9715
0.9735
0.9762
0.9764
0.9745
0.9682
0.9551
0.9363
0.919
0.9071
0.9008
0.8969
0.8914
0.8838
0.875
0.8573
0.03804
0.0695
0.1607
0.3466
0.6034
0.5689
0.5026
0.4521
0.4686
0.3265
0.2038
0.1325
0.1062
0.1101
0.127
0.1417
0.1339
0.1677
0.2143
0.2583
0.2552
0.2757
0.3205
0.3768
0.4038
0.378
0.3107
0.2462
0.2195
0.2059
0.2
0.1886
0.187
0.1661
0.1494
0.1403
0.1357
0.1387
0.1565
0.1685
0.176
0.1813
0.1878
0.1961
0.2078
0.2223
0.2391
0.254
0.2659
0.276
0.2834
0.2916
0.3032
0.3127
0.3216
0.3314
0.3441
0.3564
0.3686
0.3792
0.3856
0.3877
0.3861
0.3851
0.3925
0.3884
0.3786
0.3674
0.3558
0.3464
0.3489
0.3415
0.3256
0.3093
0.2923
0.2755
0.2614
0.2442
0.2267
0.2116
0.1855
0.1694
0.1562
0.1447
0.1304
0.124
0.1126
0.1146
0.1174
0.1185
0.1095
0.1085
0.1175
0.1382
0.1609
0.1825
0.1966
0.2127
0.2397
0.2661
0.2906
0.3171
0.3565
0.4026
0.447
0.4802
0.5138
0.5456
0.5733
0.6003
0.6278
0.6566
0.687
0.7176
0.744
0.7661
0.7863
0.8042
0.8201
0.8341
0.8456
0.8535
0.8642
0.8808
0.9025
0.924
0.9396
0.9487
0.9536
0.9562
0.9567
0.9565
0.9588
0.9625
0.9655
0.9667
0.9657
0.9623
0.9626
0.9634
0.9629
0.9595
0.9576
0.9551
0.9563
0.9561
0.9568
0.9535
0.9469
0.9312
0.9128
0.8914
0.8799
0.8757
0.871
0.862
0.8501
0.8362
0.8201
0.7976
0.03977
0.07164
0.1715
0.3767
0.6056
0.5443
0.4401
0.329
0.3355
0.2737
0.2024
0.1416
0.1202
0.1275
0.1333
0.1466
0.1348
0.1556
0.1972
0.2584
0.2749
0.315
0.3749
0.4351
0.4562
0.4167
0.3073
0.2124
0.1807
0.171
0.1843
0.1998
0.1977
0.1676
0.1547
0.1372
0.1286
0.1279
0.1474
0.1565
0.1585
0.1564
0.1578
0.1638
0.1783
0.1941
0.2116
0.2291
0.2472
0.2641
0.277
0.2882
0.3
0.3099
0.3189
0.328
0.3383
0.3464
0.3553
0.3647
0.374
0.3776
0.3771
0.3769
0.3848
0.3771
0.3631
0.3433
0.3238
0.3092
0.3071
0.2967
0.2772
0.258
0.2384
0.2169
0.1969
0.175
0.1572
0.1447
0.1242
0.1126
0.1012
0.09298
0.08203
0.0817
0.07626
0.07849
0.08073
0.0825
0.07694
0.07693
0.08537
0.104
0.1259
0.1495
0.1678
0.1868
0.2203
0.2527
0.2806
0.3088
0.3475
0.3949
0.4405
0.4782
0.5135
0.5457
0.5729
0.5987
0.6252
0.6531
0.6829
0.7147
0.7436
0.7683
0.7919
0.8122
0.8297
0.8438
0.8552
0.8622
0.8695
0.8818
0.9005
0.922
0.941
0.9531
0.9588
0.961
0.9593
0.9559
0.9552
0.9575
0.9579
0.9579
0.9541
0.9482
0.9461
0.9453
0.9426
0.9379
0.9324
0.9245