/*--------------------------------*- C++ -*----------------------------------*\
| =========                 |                                                 |
| \\      /  F ield         | OpenFOAM: The Open Source CFD Toolbox           |
|  \\    /   O peration     | Version:  5.x                                   |
|   \\  /    A nd           | Web:      www.OpenFOAM.org                      |
|    \\/     M anipulation  |                                                 |
\*---------------------------------------------------------------------------*/
FoamFile
{
    version     2.0;
    format      ascii;
    class       volScalarField;
    location    "105";
    object      gamma;
}
// * * * * * * * * * * * * * * * * * * * * * * * * * * * * * * * * * * * * * //

dimensions      [0 0 0 0 0 0 0];

internalField   nonuniform List<scalar> 
86400
(
1.53e-05
1.883e-05
2.803e-05
5.036e-05
0.0001024
0.0001681
0.0002217
0.0002796
0.0003717
0.0004672
0.0006914
0.0008597
0.001015
0.0009686
0.001091
0.001422
0.00255
0.003954
0.004676
0.004275
0.003845
0.003807
0.004585
0.005116
0.005313
0.006356
0.006027
0.005656
0.005004
0.004615
0.004314
0.004528
0.004847
0.005246
0.005774
0.007065
0.007515
0.007399
0.00626
0.005997
0.005628
0.006175
0.006109
0.005178
0.004718
0.004831
0.005643
0.006297
0.007034
0.006741
0.00675
0.006984
0.007342
0.007884
0.00833
0.009317
0.01044
0.01087
0.0106
0.01017
0.009085
0.009048
0.008792
0.009161
0.01065
0.013
0.01437
0.01552
0.01443
0.01408
0.01587
0.01941
0.0223
0.02343
0.02423
0.02592
0.02701
0.03053
0.03374
0.03473
0.03452
0.03366
0.03361
0.0366
0.04212
0.04564
0.0483
0.04733
0.04756
0.04681
0.04244
0.04244
0.04358
0.04872
0.05032
0.04994
0.04355
0.03994
0.03736
0.03484
0.03218
0.0275
0.02324
0.01837
0.01421
0.01349
0.01602
0.02022
0.01838
0.01363
0.0084
0.005723
0.004958
0.00497
0.004723
0.004394
0.004145
0.003971
0.003957
0.003979
0.003967
0.003886
0.003744
0.00353
0.003416
0.003401
0.003325
0.003233
0.003124
0.002954
0.002671
0.002861
0.003124
0.003413
0.00367
0.003988
0.004282
0.004778
0.003141
0.001512
0.0008554
0.0006788
0.0008647
0.001142
0.00119
0.0008678
0.0008256
0.000847
0.0009191
0.0009961
0.001021
0.001192
0.00176
0.002492
0.003417
0.004642
0.00521
0.00737
0.09634
0.9712
1.914e-05
2.117e-05
2.93e-05
4.792e-05
9.743e-05
0.0001569
0.0001969
0.000219
0.0002273
0.0002471
0.0003624
0.0005233
0.0007884
0.00105
0.001239
0.001419
0.002305
0.003852
0.00543
0.006971
0.007181
0.007139
0.007914
0.008935
0.009468
0.01001
0.009642
0.009151
0.008669
0.007803
0.007304
0.007587
0.008157
0.008905
0.009837
0.0118
0.01295
0.0136
0.01279
0.01282
0.01226
0.01284
0.01284
0.01116
0.009434
0.008814
0.008724
0.008909
0.009639
0.009828
0.01038
0.01132
0.01259
0.01372
0.01271
0.01152
0.01046
0.009521
0.008781
0.008871
0.008212
0.008124
0.007697
0.007799
0.008849
0.01208
0.01476
0.01731
0.01713
0.01746
0.01933
0.02255
0.0225
0.02141
0.02
0.02216
0.02704
0.03532
0.04101
0.04233
0.0405
0.03866
0.0408
0.04538
0.05359
0.05929
0.06428
0.06376
0.06597
0.0685
0.06764
0.07039
0.07177
0.07037
0.06524
0.05783
0.04754
0.04146
0.03768
0.03441
0.03372
0.03402
0.03547
0.03267
0.0253
0.02161
0.02395
0.02943
0.03172
0.02752
0.01735
0.01164
0.009707
0.009812
0.009545
0.009194
0.009056
0.009077
0.009541
0.01008
0.01052
0.01066
0.01054
0.01006
0.009809
0.009804
0.009498
0.009114
0.008663
0.00813
0.007392
0.007865
0.008535
0.009907
0.01093
0.0109
0.01002
0.009131
0.006003
0.003287
0.002587
0.002222
0.002399
0.00307
0.003326
0.002925
0.003083
0.003505
0.004134
0.004223
0.003914
0.00391
0.00467
0.007171
0.01362
0.02957
0.06312
0.1972
0.5091
0.9444
2.808e-05
2.909e-05
3.718e-05
5.321e-05
9.841e-05
0.0001439
0.0001632
0.0001627
0.0001426
0.0001613
0.000243
0.0004393
0.0007282
0.001162
0.001276
0.001548
0.002659
0.00484
0.006363
0.008357
0.00791
0.007527
0.008548
0.00992
0.009732
0.01094
0.01188
0.01342
0.01562
0.01616
0.0153
0.01628
0.01584
0.01454
0.01302
0.01262
0.01234
0.01254
0.01141
0.01192
0.01264
0.01511
0.01672
0.01686
0.01474
0.0137
0.01314
0.01293
0.01357
0.01442
0.01348
0.01187
0.01057
0.009777
0.008369
0.00826
0.007797
0.007108
0.006636
0.006902
0.006857
0.007192
0.007421
0.008476
0.009469
0.01154
0.01372
0.01599
0.0161
0.01708
0.01801
0.01769
0.01563
0.01564
0.01706
0.02419
0.03608
0.04972
0.05667
0.05938
0.05618
0.05202
0.05351
0.05843
0.07053
0.07757
0.08452
0.08578
0.08013
0.07106
0.05984
0.05186
0.04485
0.04576
0.04563
0.04442
0.04154
0.0395
0.03552
0.0332
0.03493
0.0393
0.04562
0.04474
0.03765
0.03328
0.0342
0.04213
0.04989
0.04682
0.03453
0.02685
0.02246
0.02282
0.02282
0.02296
0.02143
0.01916
0.01752
0.01645
0.01635
0.01708
0.01714
0.01649
0.01615
0.01618
0.01567
0.01499
0.01398
0.01314
0.0121
0.01258
0.01302
0.01376
0.01506
0.01514
0.01457
0.01391
0.01122
0.008235
0.007505
0.007076
0.007672
0.00917
0.01004
0.009036
0.008596
0.008803
0.009787
0.009856
0.01006
0.0105
0.01405
0.02589
0.05572
0.1303
0.3372
0.7293
0.8804
0.981
4.635e-05
4.688e-05
5.159e-05
6.102e-05
9.329e-05
0.0001143
0.0001086
9.591e-05
8.25e-05
0.0001066
0.0001467
0.000186
0.000217
0.0003994
0.0005098
0.0008507
0.001645
0.002173
0.002014
0.002042
0.001693
0.001419
0.002053
0.002866
0.002957
0.003868
0.005258
0.007189
0.01068
0.01396
0.01374
0.0162
0.01666
0.01569
0.01361
0.0122
0.01129
0.01154
0.01033
0.01176
0.01473
0.02145
0.0308
0.03801
0.02842
0.01965
0.01285
0.009215
0.008065
0.008955
0.007813
0.006386
0.005903
0.005692
0.004977
0.005089
0.004732
0.004455
0.004732
0.005702
0.006318
0.007305
0.008266
0.009281
0.01006
0.0118
0.013
0.01414
0.0142
0.01626
0.01906
0.01892
0.01783
0.0195
0.01984
0.02885
0.04201
0.05199
0.05119
0.05277
0.04811
0.04406
0.04418
0.04562
0.04933
0.05219
0.05598
0.05726
0.05687
0.05753
0.05808
0.05762
0.05136
0.05223
0.05019
0.04769
0.04525
0.04429
0.03989
0.03962
0.0406
0.04206
0.05042
0.05042
0.04018
0.03429
0.03121
0.03704
0.04637
0.05296
0.04255
0.03694
0.03142
0.0325
0.03445
0.03803
0.03728
0.03429
0.03104
0.0286
0.02742
0.02932
0.02978
0.02894
0.02852
0.02864
0.02789
0.02687
0.02573
0.02457
0.02321
0.02391
0.02454
0.02629
0.02607
0.02211
0.01771
0.01371
0.01215
0.01244
0.01339
0.01384
0.01484
0.01648
0.01942
0.02058
0.02139
0.0236
0.02879
0.03214
0.04
0.04675
0.06463
0.1198
0.2838
0.575
0.8104
0.9515
0.9902
0.9989
9.273e-05
0.0001011
0.0001005
0.0001038
0.0001155
0.0001029
7.057e-05
6.413e-05
6.306e-05
9.064e-05
0.0001042
8.052e-05
5.524e-05
9.713e-05
0.000151
0.0004155
0.001179
0.001025
0.0005339
0.000453
0.0004312
0.000385
0.0007188
0.0009544
0.0009803
0.001617
0.003213
0.006827
0.01286
0.01592
0.01071
0.008999
0.007274
0.006258
0.005754
0.005194
0.004409
0.00515
0.006019
0.009326
0.01254
0.0159
0.01412
0.01215
0.007152
0.004654
0.002635
0.002079
0.002261
0.003564
0.004096
0.004298
0.004072
0.004236
0.004
0.004275
0.0042
0.0042
0.005447
0.007771
0.01006
0.01275
0.01599
0.0179
0.01641
0.01411
0.01296
0.01158
0.01054
0.01181
0.01401
0.0131
0.01411
0.01722
0.02041
0.02745
0.0381
0.04039
0.0373
0.03968
0.03593
0.032
0.03258
0.03591
0.04225
0.05008
0.05667
0.05651
0.05556
0.05562
0.05309
0.05593
0.05296
0.05486
0.05223
0.05333
0.04581
0.04359
0.0408
0.03874
0.03236
0.02454
0.02285
0.02307
0.02215
0.02716
0.03017
0.03218
0.03721
0.05059
0.04421
0.04272
0.03867
0.04081
0.0384
0.03547
0.02812
0.02159
0.01641
0.01551
0.01467
0.01553
0.01563
0.01538
0.01544
0.01581
0.01596
0.01604
0.01613
0.01615
0.01596
0.01565
0.01479
0.01477
0.01297
0.01071
0.009134
0.008583
0.008649
0.01047
0.01244
0.01391
0.01562
0.01866
0.02453
0.02888
0.03338
0.03774
0.05066
0.06612
0.1042
0.1631
0.2863
0.4931
0.7066
0.8383
0.9378
0.9871
0.9983
0.9998
0.0001605
0.0002023
0.0001924
0.0001854
0.0001357
9.098e-05
5.326e-05
5.355e-05
6.792e-05
0.0001198
0.0001285
5.877e-05
2.451e-05
3.194e-05
8.577e-05
0.0002928
0.0008225
0.0005988
0.0002855
0.0002737
0.0003722
0.0004007
0.000834
0.0005548
0.0003307
0.0003531
0.0006302
0.001485
0.004182
0.004885
0.002893
0.00218
0.001793
0.001712
0.002192
0.002315
0.00173
0.001786
0.00208
0.002392
0.002075
0.001899
0.001076
0.0006807
0.0003796
0.0001743
5.015e-05
3.643e-05
4.588e-05
0.0001011
0.0001682
0.000303
0.0004773
0.000676
0.0008052
0.0008054
0.0007236
0.0008892
0.002105
0.004918
0.009069
0.0119
0.01155
0.01112
0.009515
0.007809
0.009494
0.01063
0.01026
0.01212
0.01551
0.01413
0.01582
0.0194
0.02107
0.0246
0.02777
0.02848
0.02867
0.03496
0.03835
0.04301
0.04918
0.05985
0.07462
0.0908
0.1007
0.09592
0.09081
0.09064
0.07491
0.04956
0.02886
0.01831
0.01219
0.01098
0.009105
0.009412
0.01041
0.01397
0.01599
0.01536
0.01495
0.01333
0.01098
0.01208
0.01103
0.01222
0.0153
0.01743
0.01451
0.01454
0.01419
0.01595
0.0149
0.01334
0.01053
0.008412
0.006863
0.006769
0.006279
0.006328
0.006232
0.006232
0.006379
0.00663
0.00696
0.007373
0.007885
0.00842
0.008803
0.008987
0.009055
0.009827
0.009283
0.008542
0.007416
0.007707
0.008419
0.01093
0.01329
0.01556
0.01879
0.0243
0.03492
0.04698
0.0646
0.09255
0.1424
0.2375
0.4295
0.5968
0.7441
0.8332
0.9153
0.9602
0.988
0.9973
0.9996
0.9999
0.0002398
0.0003476
0.0003004
0.0002462
0.0001467
9.086e-05
5.324e-05
7.471e-05
0.0001501
0.0002984
0.0002631
9.088e-05
2.128e-05
2.114e-05
3.969e-05
0.0001718
0.0006727
0.0008296
0.0005596
0.0007311
0.00127
0.001297
0.002015
0.0006829
0.0002696
0.000194
0.0002857
0.0005743
0.001897
0.002201
0.001303
0.000807
0.0007464
0.0009072
0.001316
0.001323
0.000766
0.0006444
0.0008655
0.00095
0.0005765
0.000305
9.155e-05
3.648e-05
1.897e-05
5.355e-06
1.11e-06
7.404e-07
1.031e-06
3.244e-06
7.452e-06
1.655e-05
3.279e-05
5.981e-05
8.274e-05
8.532e-05
8.597e-05
0.0001415
0.0005864
0.002005
0.00565
0.009194
0.009291
0.01019
0.01089
0.008975
0.01197
0.01422
0.01422
0.01474
0.02029
0.01686
0.01861
0.02294
0.02669
0.03338
0.03661
0.03449
0.02969
0.0321
0.03831
0.0564
0.08515
0.1467
0.2899
0.4594
0.5152
0.4473
0.2797
0.1607
0.06557
0.03083
0.01721
0.01187
0.008478
0.008268
0.006402
0.00627
0.006634
0.01095
0.01483
0.01535
0.01694
0.01238
0.007517
0.00573
0.004353
0.003346
0.004461
0.005055
0.005083
0.005772
0.006053
0.006713
0.006431
0.005959
0.004734
0.004222
0.003737
0.004024
0.003953
0.003969
0.003947
0.003995
0.004151
0.004369
0.004625
0.004939
0.005382
0.005949
0.006572
0.007235
0.007949
0.009253
0.00956
0.01057
0.01255
0.01603
0.02084
0.02986
0.03837
0.04879
0.06412
0.08868
0.1306
0.1911
0.3038
0.4566
0.5677
0.6884
0.7807
0.8642
0.9356
0.9687
0.9872
0.9949
0.9983
0.9995
0.9999
1
0.0004198
0.0005831
0.0004125
0.0002991
0.0001804
0.0001168
8.598e-05
0.0001764
0.0003248
0.0004127
0.0003385
0.0001052
2.401e-05
2.244e-05
4.083e-05
0.0001624
0.0007078
0.001486
0.002108
0.00479
0.007683
0.007144
0.008188
0.002739
0.0008584
0.000313
0.0003462
0.00047
0.001197
0.001437
0.001016
0.0009349
0.0009458
0.001219
0.001576
0.001418
0.0007623
0.0007093
0.001141
0.000767
0.0002933
7.888e-05
1.974e-05
5.777e-06
3.52e-06
7.845e-07
1.477e-07
9.886e-08
1.611e-07
5.593e-07
1.56e-06
4.677e-06
1.419e-05
3.663e-05
5.202e-05
3.22e-05
2.041e-05
2.54e-05
0.0001016
0.000447
0.002079
0.005304
0.007047
0.009387
0.01138
0.01066
0.01466
0.01733
0.01605
0.01434
0.01723
0.01595
0.01769
0.0223
0.0293
0.03401
0.03396
0.03878
0.03808
0.05199
0.09036
0.257
0.6064
0.8235
0.92
0.9533
0.9585
0.9382
0.8634
0.6665
0.1779
0.04437
0.02155
0.01939
0.02112
0.02753
0.02261
0.01828
0.01717
0.02151
0.02418
0.03181
0.02787
0.01295
0.004994
0.00272
0.002606
0.002315
0.003142
0.002433
0.002122
0.002225
0.00272
0.003186
0.003121
0.00292
0.003126
0.003653
0.004139
0.005419
0.005916
0.006095
0.006294
0.006551
0.006872
0.007274
0.007723
0.008242
0.0091
0.01049
0.01256
0.01545
0.01926
0.02448
0.02849
0.03357
0.04169
0.05455
0.07481
0.1111
0.1544
0.2223
0.3346
0.4748
0.5833
0.6873
0.7846
0.8533
0.8944
0.9321
0.9572
0.9784
0.9917
0.9967
0.9988
0.9995
0.9998
0.9999
1
1
0.0006524
0.0007526
0.0004641
0.0003137
0.000193
0.0001448
0.0001625
0.0002887
0.0003626
0.0003496
0.0002175
9.256e-05
4.695e-05
5.838e-05
0.0001168
0.000328
0.0007413
0.001481
0.002425
0.003712
0.006438
0.008846
0.01472
0.009386
0.004234
0.001821
0.001075
0.001068
0.001706
0.002056
0.001721
0.002117
0.001964
0.002232
0.001895
0.001164
0.0004691
0.000539
0.0008382
0.0003501
0.0001006
2.209e-05
6.392e-06
2.315e-06
2.293e-06
8.06e-07
2.754e-07
2.16e-07
3.546e-07
5.395e-07
1.029e-06
2.24e-06
5.721e-06
1.395e-05
2.167e-05
1.505e-05
8.501e-06
9.019e-06
2.74e-05
0.0001381
0.0009941
0.003941
0.007899
0.01171
0.01396
0.01162
0.01373
0.01618
0.01348
0.01069
0.01111
0.01035
0.0116
0.01741
0.03012
0.05114
0.07074
0.1107
0.1343
0.2134
0.4909
0.7934
0.9377
0.9849
0.9962
0.9985
0.9986
0.9968
0.9849
0.9191
0.5846
0.1312
0.09334
0.1586
0.3322
0.5401
0.5281
0.347
0.2028
0.1608
0.1427
0.1557
0.11
0.04047
0.01595
0.007583
0.006189
0.005163
0.005266
0.002508
0.001952
0.001634
0.001863
0.002106
0.002626
0.003553
0.005152
0.00662
0.007684
0.008838
0.009238
0.0101
0.01102
0.01194
0.01278
0.0136
0.0147
0.01614
0.01868
0.02316
0.03077
0.04292
0.06035
0.08284
0.1141
0.1666
0.2591
0.4136
0.5274
0.6101
0.6803
0.7583
0.8281
0.8815
0.9115
0.9366
0.9588
0.9743
0.9829
0.9892
0.994
0.9974
0.9991
0.9997
0.9999
0.9999
1
1
1
1
0.0006222
0.0006169
0.0004169
0.0003035
0.0002294
0.0002201
0.0002234
0.0002625
0.0002385
0.0001987
0.0001141
8.414e-05
9.244e-05
0.0001645
0.0003841
0.0007206
0.001465
0.001542
0.001657
0.001341
0.001909
0.003365
0.008565
0.01277
0.01015
0.005102
0.002202
0.001875
0.00182
0.002572
0.003303
0.005357
0.005129
0.005098
0.002412
0.001133
0.0006006
0.0007568
0.0006981
0.0001787
4.127e-05
8.68e-06
3.68e-06
2.58e-06
3.182e-06
1.61e-06
1.168e-06
1.288e-06
1.312e-06
1.015e-06
9.721e-07
1.13e-06
3.132e-06
1.042e-05
1.924e-05
1.692e-05
1.233e-05
1.172e-05
2.492e-05
0.0001212
0.0007555
0.003625
0.007655
0.01194
0.01392
0.01152
0.0106
0.01307
0.01201
0.01148
0.014
0.01698
0.02747
0.05956
0.1038
0.1711
0.2524
0.4189
0.5256
0.672
0.8303
0.9408
0.9865
0.9975
0.9995
0.9998
0.9998
0.9995
0.9967
0.978
0.8879
0.7385
0.7609
0.8537
0.9264
0.9486
0.9478
0.9186
0.8702
0.8125
0.7594
0.7243
0.6011
0.2693
0.08785
0.05028
0.04293
0.03529
0.02708
0.009373
0.004958
0.002772
0.002294
0.001529
0.001677
0.002606
0.0053
0.01028
0.01686
0.02
0.02369
0.03091
0.03678
0.04273
0.05142
0.06277
0.0792
0.1001
0.1278
0.1631
0.2251
0.3124
0.3738
0.426
0.5028
0.6107
0.7247
0.8178
0.8598
0.8867
0.9103
0.9384
0.9617
0.9779
0.9854
0.9901
0.9937
0.9961
0.9974
0.9983
0.9991
0.9996
0.9999
0.9999
1
1
1
1
1
1
0.0005317
0.0004709
0.0003823
0.0003751
0.0003794
0.0002487
0.0001313
9.067e-05
6.294e-05
6.165e-05
6.701e-05
8.915e-05
0.0002037
0.0005724
0.00104
0.001726
0.002078
0.001144
0.0008416
0.0004583
0.0006176
0.001019
0.004042
0.01163
0.01655
0.01157
0.008129
0.005751
0.003763
0.004288
0.004316
0.004817
0.003478
0.002754
0.001327
0.0006629
0.0005019
0.0009189
0.0006664
0.0001862
3.301e-05
8.408e-06
2.78e-06
1.912e-06
1.775e-06
1.988e-06
5.567e-06
1.14e-05
1.188e-05
4.715e-06
1.433e-06
7.895e-07
2.209e-06
1.244e-05
4.433e-05
8.908e-05
9.269e-05
7.615e-05
0.0001127
0.000452
0.00192
0.006347
0.0122
0.01749
0.01684
0.01366
0.01157
0.01486
0.0175
0.02284
0.03221
0.06707
0.1272
0.3026
0.4916
0.619
0.7073
0.7893
0.8406
0.8968
0.9469
0.9799
0.995
0.999
0.9998
0.9999
0.9999
0.9998
0.9988
0.9945
0.9838
0.9779
0.9846
0.9912
0.995
0.9956
0.9944
0.9898
0.9825
0.9687
0.9497
0.9271
0.8831
0.8119
0.7433
0.6945
0.6541
0.5729
0.3989
0.1435
0.06574
0.02823
0.01491
0.006417
0.00551
0.007063
0.014
0.02589
0.04589
0.05924
0.07889
0.1181
0.1511
0.1823
0.2287
0.2864
0.3319
0.3792
0.4606
0.5562
0.6738
0.7665
0.7966
0.8116
0.8405
0.8837
0.9284
0.961
0.9736
0.9802
0.9846
0.9898
0.9939
0.9966
0.9977
0.9985
0.999
0.9994
0.9996
0.9997
0.9998
0.9999
1
1
1
1
1
1
1
1
0.0004894
0.0004296
0.0004067
0.0004593
0.000477
0.0002933
0.0001022
5.153e-05
2.84e-05
4.707e-05
7.809e-05
0.0002601
0.0008105
0.001609
0.002467
0.003777
0.003027
0.001729
0.0009596
0.0004188
0.0005382
0.001131
0.004896
0.01334
0.02065
0.01588
0.01417
0.01016
0.0076
0.00722
0.006679
0.005531
0.00326
0.001863
0.001244
0.0007765
0.0007544
0.001508
0.0007478
0.0001808
2.825e-05
5.121e-06
1.302e-06
9.453e-07
6.478e-07
1.184e-06
5.022e-06
2.089e-05
2.299e-05
8.451e-06
1.66e-06
9.113e-07
3.131e-06
2.661e-05
0.0001426
0.0003221
0.0004275
0.0004656
0.0006796
0.001896
0.003923
0.007318
0.01006
0.01238
0.01203
0.0147
0.0176
0.03135
0.05573
0.1051
0.2084
0.4504
0.6363
0.7671
0.8167
0.851
0.8852
0.9189
0.9467
0.9688
0.9836
0.9925
0.9974
0.9992
0.9997
0.9998
0.9998
0.9997
0.9994
0.9988
0.9982
0.998
0.9983
0.9983
0.9983
0.9976
0.9966
0.9944
0.9917
0.9871
0.9812
0.9747
0.9639
0.9515
0.9443
0.9396
0.9382
0.9335
0.9086
0.8527
0.7636
0.5813
0.3033
0.09763
0.04806
0.03742
0.04734
0.0624
0.09526
0.1328
0.2156
0.3985
0.5392
0.6225
0.6821
0.736
0.7713
0.7925
0.8305
0.871
0.9147
0.9475
0.9593
0.9649
0.9717
0.9814
0.9894
0.9945
0.9964
0.9973
0.9979
0.9985
0.999
0.9994
0.9996
0.9997
0.9998
0.9998
0.9999
0.9999
0.9999
0.9999
1
1
1
1
1
1
1
0.9999
0.0004391
0.0004303
0.000416
0.0004211
0.0004546
0.0002932
9.614e-05
5.037e-05
4.98e-05
9.978e-05
0.0002535
0.001004
0.002035
0.003291
0.004052
0.004262
0.003217
0.002018
0.001007
0.0004706
0.0005657
0.001224
0.004207
0.009425
0.01546
0.01388
0.0164
0.01406
0.01301
0.01148
0.01114
0.008065
0.00529
0.003605
0.002405
0.001663
0.001715
0.002793
0.001075
0.0003065
5.893e-05
1.152e-05
2.131e-06
1.625e-06
1e-06
2.302e-06
1.319e-05
7.733e-05
7.42e-05
3.044e-05
4.203e-06
1.756e-06
4.434e-06
3.757e-05
0.0001771
0.0005143
0.001007
0.001454
0.002757
0.006266
0.00858
0.01054
0.0107
0.01383
0.01998
0.03513
0.06018
0.1422
0.3346
0.594
0.7483
0.8278
0.872
0.9039
0.9195
0.9384
0.9555
0.9698
0.9803
0.9879
0.993
0.9957
0.9974
0.9984
0.999
0.9992
0.9993
0.9993
0.9994
0.9995
0.9996
0.9996
0.9995
0.9993
0.9989
0.9982
0.9972
0.9962
0.9954
0.9942
0.9929
0.9913
0.9901
0.9891
0.9884
0.9864
0.9846
0.982
0.9781
0.9726
0.9624
0.9385
0.8958
0.8021
0.6819
0.5893
0.5322
0.5335
0.5781
0.6419
0.7428
0.8306
0.8814
0.9099
0.9279
0.9436
0.9541
0.9609
0.9697
0.9791
0.9875
0.9927
0.9947
0.9957
0.9967
0.9977
0.9985
0.9991
0.9994
0.9996
0.9996
0.9997
0.9998
0.9998
0.9999
0.9999
0.9999
0.9999
0.9999
0.9999
0.9999
0.9999
0.9999
1
1
1
1
1
0.9999
0.9999
0.0005948
0.0005828
0.0005652
0.0004758
0.0004643
0.0003803
0.0001731
0.0001528
0.0001648
0.0003473
0.0007859
0.00223
0.00284
0.003383
0.003131
0.002925
0.002436
0.001604
0.0009516
0.0006861
0.0009233
0.00184
0.003854
0.006153
0.007262
0.006585
0.008921
0.008702
0.009823
0.01152
0.01313
0.01145
0.009721
0.006662
0.004025
0.002499
0.002083
0.00293
0.001772
0.0009378
0.0002906
8.024e-05
1.795e-05
1.35e-05
8.793e-06
1.922e-05
7.494e-05
0.0003867
0.0004373
0.0002529
4.696e-05
2.485e-05
4.736e-05
0.0001939
0.0006167
0.001382
0.002346
0.003791
0.006371
0.01085
0.01304
0.01532
0.0211
0.04112
0.08563
0.1874
0.4007
0.6194
0.7627
0.8465
0.9022
0.9302
0.9431
0.9513
0.9593
0.968
0.9758
0.9831
0.9892
0.9935
0.996
0.9975
0.9982
0.9985
0.9987
0.9987
0.9987
0.999
0.9994
0.9996
0.9997
0.9997
0.9996
0.9994
0.999
0.9984
0.9979
0.9977
0.9978
0.9976
0.9973
0.9968
0.9969
0.9968
0.9967
0.9961
0.9955
0.9947
0.9946
0.994
0.9927
0.9898
0.9848
0.9745
0.957
0.9337
0.9071
0.8962
0.9024
0.925
0.9502
0.9701
0.9805
0.9861
0.9898
0.9923
0.9939
0.995
0.9963
0.9974
0.9983
0.9989
0.9992
0.9994
0.9995
0.9996
0.9997
0.9998
0.9998
0.9999
0.9999
0.9999
0.9999
0.9999
0.9999
0.9999
0.9999
0.9999
0.9999
0.9999
0.9999
0.9999
0.9999
0.9999
1
1
1
0.9999
0.9999
0.9998
0.001127
0.001095
0.001114
0.0005562
0.0004212
0.0002743
0.0002057
0.0003788
0.0007748
0.0009062
0.00117
0.001623
0.001919
0.002216
0.002203
0.001396
0.0004973
0.0001741
7.843e-05
5.756e-05
0.000111
0.0003347
0.0009991
0.002106
0.003226
0.003366
0.004279
0.004162
0.004319
0.004529
0.005446
0.00716
0.009465
0.008059
0.00487
0.002779
0.002032
0.003033
0.00292
0.002829
0.001759
0.0008105
0.0002806
0.0002246
0.0001471
0.0003072
0.0007219
0.00231
0.002762
0.002033
0.0006947
0.0003618
0.0004229
0.0008454
0.001935
0.003234
0.004948
0.007186
0.01123
0.01767
0.02805
0.04506
0.08408
0.2012
0.4412
0.629
0.7479
0.8311
0.8847
0.9163
0.9394
0.9539
0.9609
0.9659
0.9713
0.9761
0.9803
0.9859
0.9911
0.9956
0.9978
0.9989
0.9993
0.9994
0.9994
0.9993
0.9992
0.9992
0.9994
0.9995
0.9996
0.9995
0.9992
0.9989
0.9986
0.9984
0.9985
0.9987
0.9987
0.9986
0.9983
0.9979
0.9982
0.9982
0.9983
0.9981
0.9979
0.9972
0.997
0.9964
0.9959
0.9954
0.9951
0.9947
0.9937
0.9916
0.9893
0.9878
0.9885
0.9916
0.9943
0.9963
0.9974
0.9981
0.9985
0.9989
0.9991
0.9992
0.9994
0.9995
0.9997
0.9998
0.9998
0.9999
0.9999
0.9999
0.9999
0.9999
0.9999
0.9999
0.9999
0.9999
0.9999
0.9999
0.9999
0.9999
0.9999
0.9999
0.9999
0.9999
0.9999
0.9999
0.9999
0.9999
1
1
1
0.9999
0.9999
0.9999
0.001985
0.002115
0.002555
0.000871
0.0004488
0.0002878
0.0003608
0.001069
0.002439
0.001852
0.001275
0.0008976
0.0006871
0.001277
0.0009311
0.0002654
6.609e-05
1.651e-05
7.563e-06
6.313e-06
1.861e-05
0.0001034
0.000477
0.001393
0.00301
0.003019
0.003625
0.003723
0.003352
0.003285
0.004333
0.007187
0.01172
0.01243
0.007686
0.00408
0.003053
0.004038
0.004998
0.006759
0.007627
0.005752
0.003394
0.003159
0.002213
0.002053
0.002459
0.004185
0.006002
0.007455
0.006117
0.004187
0.00437
0.004602
0.007049
0.008898
0.01281
0.01834
0.03236
0.04695
0.09095
0.1725
0.3658
0.5989
0.7374
0.813
0.8709
0.9107
0.9329
0.9458
0.9545
0.9632
0.97
0.9755
0.9789
0.9808
0.9813
0.9868
0.9922
0.9966
0.9986
0.9993
0.9995
0.9997
0.9996
0.9995
0.9993
0.9989
0.9987
0.9986
0.9986
0.9985
0.9982
0.9978
0.9979
0.9982
0.9986
0.9987
0.9988
0.9986
0.9984
0.9981
0.9984
0.9984
0.9986
0.9984
0.9983
0.9979
0.9978
0.9975
0.9974
0.9974
0.9975
0.9978
0.9978
0.9977
0.9976
0.9978
0.9983
0.9988
0.9991
0.9994
0.9995
0.9996
0.9997
0.9998
0.9998
0.9998
0.9999
0.9999
0.9999
0.9999
0.9999
0.9999
0.9999
0.9999
0.9999
0.9999
0.9999
0.9999
0.9999
0.9999
0.9999
0.9999
0.9999
0.9999
0.9999
0.9999
0.9999
0.9999
0.9999
0.9999
0.9999
1
1
1
1
1
1
0.9999
0.002698
0.003222
0.005488
0.001835
0.000585
0.0003064
0.0005428
0.001631
0.003686
0.002652
0.001222
0.0007008
0.0006064
0.001121
0.0003537
5.411e-05
1.287e-05
3.999e-06
2.945e-06
3.299e-06
1.312e-05
7.881e-05
0.0004206
0.001483
0.004471
0.00386
0.004863
0.004615
0.003266
0.002694
0.003088
0.005525
0.009954
0.01196
0.008562
0.005759
0.005708
0.006943
0.009819
0.01334
0.01732
0.0176
0.016
0.01264
0.008078
0.005089
0.004217
0.005192
0.008389
0.01159
0.01223
0.01045
0.01144
0.0126
0.02132
0.02832
0.04154
0.06029
0.1027
0.1681
0.3577
0.5556
0.7208
0.8298
0.8977
0.9371
0.9648
0.9766
0.9812
0.98
0.9751
0.9724
0.9759
0.98
0.9823
0.9816
0.9794
0.9847
0.9912
0.9963
0.9984
0.9993
0.9994
0.9995
0.9994
0.9991
0.9984
0.9972
0.9956
0.9949
0.9948
0.9948
0.9947
0.9952
0.9963
0.9973
0.9979
0.998
0.9978
0.9973
0.9969
0.9967
0.9974
0.9977
0.998
0.9983
0.9985
0.9984
0.9984
0.9981
0.998
0.9981
0.9984
0.9988
0.9991
0.9993
0.9994
0.9996
0.9997
0.9998
0.9998
0.9999
0.9999
0.9999
0.9999
0.9999
0.9999
0.9999
0.9999
0.9999
0.9999
0.9999
0.9999
0.9999
0.9999
0.9999
0.9999
0.9999
0.9999
0.9999
0.9999
0.9999
0.9999
0.9999
0.9999
0.9999
0.9999
0.9999
0.9999
0.9999
0.9999
1
1
1
1
1
1
1
1
1
0.002944
0.004153
0.007006
0.00265
0.0007669
0.0006127
0.001037
0.003151
0.00457
0.002769
0.001006
0.0004844
0.0004032
0.000555
8.715e-05
1.639e-05
6.698e-06
4.332e-06
5.676e-06
8.178e-06
3.303e-05
0.0001476
0.0008676
0.002907
0.008186
0.005974
0.006406
0.005914
0.004506
0.004224
0.004477
0.006648
0.01115
0.01262
0.009688
0.008116
0.009659
0.01138
0.0137
0.0163
0.02167
0.02585
0.03464
0.02992
0.01872
0.009585
0.005696
0.005251
0.008164
0.01315
0.01788
0.02165
0.03003
0.03952
0.05961
0.08673
0.1375
0.1987
0.3728
0.5501
0.6979
0.8056
0.8964
0.9485
0.9769
0.988
0.9935
0.9949
0.9951
0.9931
0.9889
0.9836
0.9824
0.9817
0.9814
0.9809
0.976
0.9813
0.9881
0.9941
0.9965
0.9977
0.998
0.9983
0.9979
0.9969
0.994
0.9892
0.9827
0.9806
0.9809
0.9828
0.9849
0.9874
0.9901
0.9923
0.9935
0.9931
0.9919
0.9907
0.9905
0.9917
0.994
0.9953
0.9963
0.9971
0.9977
0.998
0.9983
0.9984
0.9985
0.9986
0.9987
0.999
0.9992
0.9995
0.9996
0.9998
0.9999
0.9999
0.9999
0.9999
0.9999
0.9999
0.9999
0.9999
0.9999
0.9999
0.9999
0.9999
0.9999
0.9999
0.9999
0.9999
0.9999
0.9999
0.9999
0.9999
0.9999
0.9999
0.9999
0.9999
0.9999
0.9999
0.9999
0.9999
0.9999
0.9999
0.9999
1
1
1
1
1
1
1
1
1
1
1
0.002944
0.004507
0.006275
0.002595
0.0006788
0.00076
0.001688
0.005716
0.006701
0.003796
0.001408
0.0005667
0.0003115
0.0002838
4.342e-05
1.184e-05
1.287e-05
2.032e-05
3.831e-05
6.163e-05
0.000204
0.0006583
0.003262
0.009604
0.02103
0.01322
0.01148
0.008574
0.006059
0.005137
0.005684
0.008088
0.01342
0.01593
0.01333
0.01238
0.01623
0.01988
0.02021
0.0177
0.01697
0.01697
0.02209
0.02306
0.01821
0.01247
0.009857
0.008759
0.01056
0.01735
0.02649
0.04035
0.06546
0.09256
0.1261
0.1898
0.3294
0.5044
0.6757
0.7813
0.8713
0.9296
0.9674
0.9851
0.9937
0.9963
0.9978
0.9979
0.9976
0.9959
0.9923
0.9852
0.9804
0.9753
0.972
0.9728
0.9672
0.9732
0.9789
0.9841
0.987
0.9884
0.987
0.9866
0.9817
0.9729
0.9598
0.9437
0.9308
0.9336
0.9355
0.9399
0.9454
0.9537
0.964
0.9718
0.9752
0.9737
0.97
0.9668
0.968
0.9738
0.9798
0.9847
0.9888
0.9921
0.9949
0.9966
0.9973
0.9977
0.9981
0.9984
0.9986
0.9989
0.9991
0.9994
0.9997
0.9998
0.9999
0.9999
0.9999
0.9999
0.9999
0.9999
0.9999
0.9999
0.9999
0.9999
0.9999
0.9999
0.9999
0.9999
0.9999
0.9999
0.9999
0.9999
0.9999
0.9999
0.9999
0.9999
0.9999
0.9999
0.9999
0.9999
0.9999
0.9999
0.9999
0.9999
0.9999
1
1
1
1
1
1
1
1
1
1
1
0.003417
0.004576
0.005497
0.002638
0.0007528
0.001189
0.002359
0.006516
0.007444
0.005473
0.002398
0.001205
0.0005697
0.0003641
7.414e-05
3.394e-05
6.861e-05
0.0001599
0.0003418
0.0005337
0.001542
0.003398
0.00953
0.01984
0.02694
0.01673
0.01219
0.009374
0.007144
0.006452
0.007099
0.01026
0.01733
0.0225
0.02047
0.01879
0.02094
0.02071
0.01704
0.01246
0.009162
0.008613
0.01094
0.01598
0.02048
0.02268
0.02329
0.02178
0.02294
0.02912
0.04144
0.05989
0.1018
0.1491
0.2365
0.4019
0.5725
0.7009
0.8245
0.9067
0.9583
0.9789
0.9897
0.9942
0.9969
0.9978
0.9983
0.9979
0.9975
0.9964
0.9937
0.988
0.9787
0.9638
0.9496
0.9545
0.9495
0.9541
0.9553
0.95
0.9392
0.9298
0.9148
0.9082
0.8917
0.8542
0.8109
0.7609
0.7323
0.7517
0.773
0.793
0.8228
0.847
0.865
0.8825
0.8908
0.8948
0.9021
0.9103
0.9256
0.9436
0.9585
0.97
0.9774
0.9815
0.9871
0.9905
0.9932
0.995
0.9964
0.9972
0.9978
0.9982
0.9987
0.9991
0.9995
0.9998
0.9999
0.9999
0.9999
0.9999
0.9999
0.9999
0.9999
0.9999
0.9999
0.9999
0.9999
0.9999
0.9999
0.9999
0.9999
0.9999
0.9999
0.9999
0.9999
0.9999
0.9999
0.9999
0.9999
0.9999
0.9999
0.9999
0.9999
0.9999
0.9999
0.9999
1
1
1
1
1
1
1
1
1
1
0.9999
0.9999
0.004328
0.005113
0.00602
0.002527
0.0008559
0.001203
0.001713
0.004637
0.0066
0.007007
0.003785
0.003141
0.001851
0.001108
0.0003219
0.0001773
0.0002905
0.0005587
0.001099
0.002316
0.005711
0.01004
0.01646
0.01961
0.01578
0.01175
0.01132
0.008141
0.006074
0.00502
0.004359
0.005832
0.0119
0.02022
0.02353
0.02331
0.02309
0.0223
0.01816
0.01354
0.009085
0.00774
0.009052
0.01405
0.02373
0.03753
0.04998
0.05229
0.05795
0.06421
0.08384
0.1073
0.1729
0.256
0.4258
0.5859
0.7174
0.8159
0.904
0.9576
0.9838
0.9916
0.9953
0.9959
0.9966
0.9965
0.9967
0.9957
0.9951
0.9942
0.9913
0.9845
0.9695
0.9354
0.9007
0.9117
0.9077
0.9017
0.8836
0.8444
0.7886
0.7505
0.7131
0.662
0.6064
0.5345
0.4875
0.4316
0.3767
0.3388
0.3414
0.3525
0.4183
0.4808
0.5347
0.6019
0.6708
0.7241
0.7721
0.8027
0.8352
0.8659
0.8981
0.9196
0.937
0.9458
0.959
0.9669
0.9742
0.9807
0.987
0.9904
0.9937
0.9959
0.9977
0.9982
0.9991
0.9996
0.9998
0.9998
0.9999
0.9999
0.9999
0.9999
0.9999
0.9999
0.9999
0.9999
0.9999
0.9999
0.9999
0.9999
0.9999
0.9999
0.9999
0.9999
0.9999
0.9999
0.9999
0.9999
0.9999
0.9999
0.9999
0.9999
0.9999
0.9999
1
1
1
1
1
1
1
1
1
1
0.9999
0.9999
0.9998
0.9997
0.005571
0.00601
0.006704
0.00256
0.001045
0.0009929
0.0008258
0.002297
0.004976
0.007856
0.006265
0.009059
0.004891
0.003197
0.001365
0.0009507
0.001134
0.001702
0.002222
0.004224
0.009523
0.01362
0.01641
0.01361
0.009401
0.008495
0.01177
0.01041
0.007953
0.0061
0.00407
0.004407
0.007717
0.01636
0.02686
0.03346
0.03465
0.03099
0.02451
0.01891
0.01384
0.01153
0.01269
0.0192
0.02993
0.0513
0.07653
0.09015
0.1166
0.1447
0.192
0.2618
0.433
0.577
0.7129
0.8007
0.8685
0.9156
0.9566
0.9819
0.9932
0.996
0.9964
0.9951
0.9933
0.9902
0.9879
0.9833
0.982
0.9826
0.98
0.9701
0.9424
0.88
0.8158
0.8282
0.821
0.8003
0.752
0.6594
0.5496
0.4794
0.4334
0.3797
0.3319
0.2859
0.2571
0.2075
0.1523
0.1115
0.09729
0.09357
0.1119
0.1379
0.1566
0.1733
0.2316
0.332
0.4559
0.5417
0.62
0.6856
0.759
0.8072
0.8366
0.8341
0.8472
0.859
0.8846
0.9134
0.9417
0.9616
0.9765
0.9879
0.9942
0.9963
0.9981
0.999
0.9996
0.9998
0.9999
0.9999
0.9999
0.9999
0.9999
0.9999
0.9999
0.9999
0.9999
0.9999
0.9999
0.9999
0.9999
0.9999
0.9999
0.9999
0.9999
0.9999
0.9999
0.9999
0.9999
0.9999
1
1
1
1
1
1
1
1
1
1
1
0.9999
0.9999
0.9999
0.9997
0.9995
0.9992
0.9984
0.006208
0.006465
0.008199
0.002989
0.001451
0.0005789
0.0002903
0.0008093
0.003457
0.009584
0.01556
0.02348
0.01187
0.008061
0.004284
0.003157
0.002316
0.002954
0.002879
0.005088
0.008274
0.009982
0.01095
0.008415
0.008475
0.01006
0.01611
0.01531
0.01253
0.00799
0.004739
0.003807
0.005222
0.01208
0.02588
0.04364
0.05299
0.04491
0.03542
0.02931
0.0245
0.02344
0.02693
0.03633
0.05155
0.0796
0.117
0.1489
0.2001
0.2641
0.3669
0.5124
0.6629
0.768
0.8614
0.9165
0.9511
0.9711
0.9847
0.9918
0.9958
0.9968
0.9961
0.9927
0.9857
0.976
0.9692
0.9621
0.9599
0.9573
0.9472
0.9214
0.8721
0.7744
0.688
0.6749
0.6436
0.5888
0.4973
0.3421
0.2346
0.1923
0.1785
0.1657
0.1386
0.1061
0.08572
0.0701
0.05484
0.04505
0.03862
0.03575
0.04426
0.05664
0.06699
0.07853
0.1007
0.1253
0.1674
0.2099
0.2652
0.3383
0.4553
0.5501
0.6056
0.624
0.6586
0.6874
0.7282
0.7701
0.8127
0.8676
0.9211
0.9652
0.9857
0.9928
0.9964
0.9981
0.9991
0.9996
0.9997
0.9998
0.9998
0.9999
0.9999
0.9999
0.9999
0.9999
0.9999
0.9999
0.9999
0.9999
0.9999
0.9999
0.9999
0.9999
0.9999
0.9999
1
1
1
1
1
1
1
1
1
1
1
1
1
0.9999
0.9999
0.9998
0.9996
0.9993
0.9985
0.9969
0.9948
0.9895
0.005032
0.005727
0.007793
0.003067
0.002276
0.000591
0.0002673
0.0005318
0.00269
0.006638
0.01602
0.0222
0.0135
0.01004
0.006985
0.006165
0.004535
0.004824
0.005232
0.006124
0.007518
0.007561
0.006981
0.005335
0.005759
0.006655
0.01139
0.01344
0.01419
0.01078
0.005885