/*--------------------------------*- C++ -*----------------------------------*\
| =========                 |                                                 |
| \\      /  F ield         | OpenFOAM: The Open Source CFD Toolbox           |
|  \\    /   O peration     | Version:  5.x                                   |
|   \\  /    A nd           | Web:      www.OpenFOAM.org                      |
|    \\/     M anipulation  |                                                 |
\*---------------------------------------------------------------------------*/
FoamFile
{
    version     2.0;
    format      ascii;
    class       volScalarField;
    location    "190";
    object      gamma;
}
// * * * * * * * * * * * * * * * * * * * * * * * * * * * * * * * * * * * * * //

dimensions      [0 0 0 0 0 0 0];

internalField   nonuniform List<scalar> 
86400
(
1.147e-08
1.719e-08
3.408e-08
9.901e-08
3.153e-07
6.762e-07
8.178e-07
1.035e-06
1.399e-06
1.438e-06
1.409e-06
8.657e-07
4.467e-07
1.556e-07
2.44e-07
7.6e-07
7.322e-06
2.083e-05
5.039e-05
3.111e-05
2.706e-05
3.12e-05
6.52e-05
6.788e-05
8.89e-05
0.0001976
0.0003289
0.0006486
0.0009679
0.001301
0.001195
0.001089
0.0009402
0.0008011
0.0007499
0.0009059
0.0008981
0.0008791
0.0007163
0.0007366
0.0007364
0.0008485
0.0007067
0.0004846
0.0004272
0.0004857
0.000713
0.0009048
0.001052
0.000943
0.000964
0.001045
0.001128
0.001179
0.001222
0.00145
0.001833
0.002161
0.002358
0.002371
0.002032
0.002045
0.001858
0.001863
0.002216
0.002816
0.003352
0.003504
0.002637
0.002256
0.002646
0.003609
0.00533
0.004925
0.004136
0.003015
0.001978
0.001647
0.001814
0.001998
0.002653
0.002923
0.00256
0.002135
0.001938
0.001669
0.001793
0.001866
0.002155
0.00241
0.002203
0.002455
0.002797
0.00388
0.004488
0.005067
0.004547
0.004729
0.004962
0.004774
0.004269
0.004341
0.00378
0.00321
0.001971
0.001849
0.002041
0.00328
0.003413
0.003223
0.002252
0.001901
0.001559
0.001152
0.0007118
0.000487
0.0004052
0.0003779
0.0003361
0.000331
0.0003951
0.0004748
0.000634
0.0007326
0.0006691
0.0005825
0.0004932
0.0004363
0.0003812
0.0003122
0.0001996
0.0001472
0.00012
0.0001016
9.046e-05
9.65e-05
0.0001249
0.0001739
7.842e-05
1.406e-05
2.803e-06
2.307e-06
3.507e-06
4.445e-06
2.117e-06
3.057e-07
3.057e-08
4.599e-09
2.12e-09
1.183e-09
2.678e-09
4.305e-09
1.947e-08
2.9e-08
1.284e-07
4.037e-07
1.303e-06
4.046e-06
0.02902
0.9989
1.705e-08
2.168e-08
3.918e-08
8.573e-08
2.223e-07
4.014e-07
4.397e-07
5.076e-07
5.66e-07
3.515e-07
3.055e-07
2.605e-07
2.48e-07
2.638e-07
5.519e-07
1.424e-06
6.349e-06
2.011e-05
5.431e-05
5.812e-05
6.794e-05
0.00011
0.0002216
0.0002921
0.0003907
0.0005131
0.0004838
0.0005175
0.0005444
0.0005439
0.000462
0.0004886
0.0005278
0.0005848
0.0006766
0.0009028
0.0009751
0.001128
0.001143
0.001257
0.001219
0.001268
0.001091
0.000839
0.0007448
0.0008733
0.00116
0.00155
0.002023
0.002199
0.002554
0.003115
0.003722
0.004244
0.004397
0.003781
0.003043
0.002535
0.002204
0.00214
0.002098
0.002221
0.001958
0.001984
0.002428
0.003779
0.004811
0.005338
0.00439
0.004154
0.005003
0.005456
0.004845
0.003246
0.002184
0.001833
0.002249
0.003006
0.003606
0.003729
0.004309
0.004668
0.005079
0.005047
0.004999
0.004572
0.005027
0.005464
0.007113
0.009291
0.01028
0.01182
0.01213
0.01149
0.01017
0.009315
0.008095
0.006823
0.005072
0.004277
0.004035
0.005152
0.007269
0.006536
0.003024
0.002066
0.00193
0.002421
0.003299
0.00359
0.002384
0.002157
0.002311
0.002444
0.002105
0.00152
0.001098
0.0009068
0.0007826
0.0007974
0.0008555
0.0008097
0.0007937
0.0007529
0.0006974
0.0007977
0.0008683
0.0009408
0.0008548
0.000658
0.0003928
0.0002948
0.0002462
0.0002875
0.0003433
0.000331
0.0003168
0.0002835
0.0001247
3.203e-05
1.537e-05
9.692e-06
6.409e-06
3.457e-06
1.032e-06
1.404e-07
3.019e-08
1.53e-08
2.31e-08
2.809e-08
4.501e-08
7.161e-08
3.039e-07
8.695e-07
5.824e-06
5.999e-05
0.0007872
0.0509
0.9712
0.9999
3.584e-08
4.23e-08
6.043e-08
9.167e-08
1.902e-07
2.775e-07
2.707e-07
2.943e-07
2.72e-07
1.756e-07
1.779e-07
2.519e-07
3.658e-07
6.493e-07
1.456e-06
5.133e-06
1.975e-05
7.845e-05
0.0001628
0.0002071
0.0001634
0.0002495
0.0003781
0.0005129
0.0007879
0.001262
0.001355
0.001401
0.001385
0.001095
0.0009368
0.001167
0.001265
0.001231
0.001076
0.001063
0.0009666
0.001113
0.001121
0.001033
0.0007509
0.0006713
0.0005698
0.0005916
0.0007748
0.001238
0.001886
0.002936
0.004527
0.004333
0.003347
0.002489
0.001944
0.001787
0.002119
0.001917
0.001673
0.001438
0.001328
0.001351
0.001536
0.001805
0.001797
0.002266
0.00252
0.002963
0.003318
0.003549
0.003147
0.00321
0.003632
0.00299
0.002203
0.00183
0.001828
0.003001
0.005698
0.008415
0.009049
0.009159
0.009711
0.0106
0.0121
0.013
0.01459
0.01423
0.01448
0.01436
0.01163
0.00834
0.005202
0.003382
0.003054
0.003952
0.004772
0.005669
0.006305
0.004584
0.00311
0.002659
0.002571
0.003208
0.004646
0.003675
0.001764
0.00145
0.00186
0.002993
0.005355
0.005477
0.003999
0.004571
0.005678
0.0063
0.004961
0.003322
0.001964
0.001377
0.001073
0.001088
0.001004
0.0009917
0.0008959
0.0007527
0.0006313
0.0006909
0.0007057
0.0007596
0.0007083
0.0005707
0.0003867
0.0003124
0.0002678
0.0003582
0.000464
0.000389
0.0003052
0.0002119
0.0001011
3.293e-05
1.815e-05
8.939e-06
4.753e-06
2.388e-06
9.792e-07
2.533e-07
8.632e-08
7.159e-08
1.34e-07
2.993e-07
8.098e-07
1.658e-06
5.233e-06
1.981e-05
0.0001975
0.00511
0.2086
0.9767
0.9998
1
8.748e-08
8.976e-08
9.819e-08
1.054e-07
1.541e-07
1.572e-07
1.24e-07
1.22e-07
1.209e-07
1.094e-07
1.67e-07
1.668e-07
1.693e-07
3.908e-07
1.358e-06
4.047e-06
1.561e-05
3.703e-05
2.394e-05
1.825e-05
1.215e-05
1.302e-05
2.604e-05
5.066e-05
0.0001097
0.0002736
0.0004747
0.000638
0.0008035
0.0007818
0.0007378
0.001182
0.001645
0.001913
0.001618
0.001412
0.00118
0.001419
0.001487
0.00127
0.0008657
0.0008283
0.000937
0.001449
0.001802
0.002038
0.001699
0.001701
0.002087
0.001948
0.001265
0.0009097
0.0008344
0.0007965
0.001016
0.0008389
0.000585
0.0004762
0.0005772
0.0008251
0.001185
0.001648
0.001944
0.002502
0.002576
0.00261
0.002398
0.002224
0.001904
0.002788
0.004349
0.003841
0.003361
0.003402
0.002955
0.005339
0.009339
0.01091
0.008641
0.009177
0.007562
0.006298
0.005439
0.004313
0.003747
0.003953
0.004045
0.004124
0.003748
0.003543
0.003141
0.002581
0.002851
0.003739
0.004355
0.004846
0.005723
0.003663
0.002335
0.001914
0.001955
0.002647
0.004442
0.003912
0.001861
0.001023
0.0008963
0.001359
0.002185
0.002396
0.001837
0.001853
0.001702
0.002625
0.002968
0.003231
0.002633
0.002669
0.002099
0.002251
0.001855
0.001757
0.001342
0.001039
0.000857
0.000962
0.001128
0.001308
0.001343
0.001157
0.0008306
0.0007223
0.0007025
0.000832
0.0008146
0.0004635
0.000207
6.15e-05
3.089e-05
1.215e-05
7.523e-06
3.734e-06
2.105e-06
1.169e-06
7.877e-07
4.348e-07
3.432e-07
8.707e-07
3.926e-06
9.901e-06
2.187e-05
4.82e-05
0.0001491
0.001143
0.02562
0.8172
0.9932
1
1
1
2.826e-07
2.234e-07
1.892e-07
1.625e-07
1.51e-07
1.224e-07
7.385e-08
6.775e-08
8.385e-08
9.76e-08
1.955e-07
1.256e-07
4.147e-08
7.351e-08
4.286e-07
2.486e-06
2.884e-05
2.917e-05
6.531e-06
2.233e-06
1.913e-06
2.248e-06
5.339e-06
6.881e-06
1.586e-05
7.046e-05
0.0003795
0.001438
0.003374
0.002306
0.001115
0.000958
0.0007862
0.0006735
0.0006026
0.000516
0.0003752
0.0005834
0.001053
0.00147
0.0008961
0.000426
0.0001825
0.0001542
0.0001283
0.000127
0.000125
0.0002093
0.0005084
0.0009146
0.000758
0.0004568
0.000551
0.0007092
0.001018
0.0007769
0.0004453
0.0003958
0.0005691
0.001093
0.002068
0.003613
0.005339
0.006892
0.005504
0.003263
0.002228
0.001569
0.001051
0.001178
0.001801
0.001622
0.002252
0.003765
0.004071
0.004254
0.00432
0.002558
0.001258
0.0009694
0.0004296
0.0001735
0.0001223
0.0001364
0.000251
0.0007362
0.001495
0.001639
0.001498
0.00144
0.001108
0.001078
0.001529
0.002214
0.003471
0.003884
0.004342
0.002758
0.002031
0.001323
0.0006363
0.0004043
0.0006197
0.0008908
0.001123
0.001431
0.001542
0.002009
0.002459
0.002262
0.001384
0.001106
0.000816
0.001534
0.001537
0.001546
0.001128
0.001081
0.0006891
0.0008598
0.0007812
0.0007935
0.0006643
0.0005032
0.000413
0.0004171
0.0004344
0.0005454
0.0006875
0.0007597
0.0007516
0.000727
0.0006723
0.0005759
0.0003764
0.0001382
4.032e-05
1.256e-05
6.375e-06
2.721e-06
1.938e-06
1.245e-06
1.2e-06
1.475e-06
2.085e-06
2.428e-06
2.836e-06
5.34e-06
2.042e-05
7.049e-05
0.0002577
0.00118
0.009128
0.2129
0.9484
0.9989
1
1
1
1
5.555e-07
3.758e-07
2.95e-07
2.408e-07
1.558e-07
9.952e-08
6.631e-08
6.361e-08
1.082e-07
2.024e-07
5.892e-07
2.224e-07
3.563e-08
2.419e-08
2.734e-07
1.24e-06
1.405e-05
8.993e-06
1.955e-06
6.778e-07
1.567e-06
2.552e-06
6.369e-06
3.12e-06
3.053e-06
6.651e-06
2.558e-05
0.0001702
0.0008025
0.0006678
0.0002829
0.0001775
0.0001337
0.0001276
0.000197
0.0002183
0.0001146
0.0001136
0.0001626
0.0001207
3.412e-05
1.137e-05
2.193e-06
8.383e-07
5.029e-07
2.415e-07
9.237e-08
1.562e-07
6.718e-07
2.823e-06
5.259e-06
8.927e-06
2.313e-05
9.996e-05
0.0002519
0.0001985
7.514e-05
5.29e-05
8.411e-05
0.0002908
0.0008516
0.001745
0.002067
0.002627
0.002312
0.001452
0.001722
0.001495
0.0009766
0.000955
0.001592
0.001444
0.002148
0.002472
0.001105
0.0003033
6.55e-05
2.255e-05
1.652e-05
2.747e-05
2.89e-05
2.07e-05
1.503e-05
2.32e-05
7.298e-05
0.000396
0.001454
0.001999
0.002294
0.002405
0.002316
0.00161
0.001492
0.001307
0.001144
0.001161
0.00105
0.0008813
0.001051
0.000976
0.0005856
0.0003461
0.0003676
0.000526
0.0009563
0.001359
0.0009452
0.001087
0.001186
0.001059
0.0004366
0.0002225
0.0001104
0.0002318
0.0003586
0.0005754
0.000557
0.0005046
0.0003545
0.0004304
0.0003601
0.0003334
0.0002747
0.0002093
0.0001806
0.0001815
0.0001814
0.0002319
0.0002939
0.0003075
0.0002465
0.0001924
0.0001493
0.0001028
7.961e-05
3.985e-05
2.385e-05
1.22e-05
7.872e-06
3.435e-06
2.719e-06
2.203e-06
2.221e-06
3.063e-06
5.416e-06
9.528e-06
2.359e-05
8.745e-05
0.0004786
0.002349
0.01286
0.1222
0.8955
0.9948
0.9999
1
1
1
1
1
7.962e-07
4.255e-07
2.775e-07
1.804e-07
1.395e-07
1.155e-07
1.173e-07
1.463e-07
3.68e-07
7.436e-07
1.715e-06
5.577e-07
3.392e-08
1.422e-08
1.004e-07
7.314e-07
1.944e-05
4.753e-05
1.595e-05
8.304e-06
3.028e-05
3.629e-05
5.825e-05
1.391e-05
5.712e-06
7.444e-06
2.243e-05
0.0001035
0.0005688
0.0005602
0.000279
9.968e-05
6.776e-05
8.041e-05
0.000153
0.0001694
5.752e-05
3.46e-05
5.173e-05
3.327e-05
4.833e-06
5.799e-07
2.759e-08
3.277e-09
1.295e-09
2.296e-10
7.133e-11
1.896e-10
2.412e-09
2.743e-08
1.303e-07
1.654e-07
2.109e-07
4.932e-07
5.95e-07
8.337e-07
1.269e-06
3.859e-06
2.099e-05
0.0001423
0.0004332
0.00103
0.0015
0.002781
0.002967
0.001494
0.001726
0.001413
0.0009917
0.0006985
0.0009167
0.0004944
0.0005057
0.0004373
0.0001986
5.163e-05
9.707e-06
3.453e-06
1.924e-06
3.161e-06
4.961e-06
6.889e-06
9.046e-06
1.844e-05
5.096e-05
0.0001149
0.00024
0.0002561
0.0004607
0.001217
0.001619
0.001192
0.0006675
0.0003781
0.0002324
0.0001431
5.979e-05
2.76e-05
1.966e-05
1.53e-05
2.073e-05
2.544e-05
5.807e-05
0.0002316
0.00102
0.001622
0.001266
0.001274
0.0012
0.0007617
0.0003182
0.0001065
4.627e-05
9.474e-05
0.0002367
0.0003727
0.0003477
0.0002425
0.0001567
0.0001789
0.0001763
0.0001886
0.0001851
0.0001508
0.0001014
6.188e-05
3.766e-05
3.373e-05
3.992e-05
5.319e-05
5.169e-05
4.339e-05
2.899e-05
1.416e-05
1.06e-05
1.148e-05
1.446e-05
1.585e-05
1.817e-05
1.014e-05
8.506e-06
1.036e-05
1.888e-05
4.519e-05
0.0001728
0.0006952
0.002964
0.0129
0.07271
0.6821
0.9524
0.9965
0.9999
1
1
1
1
1
1
1
1.596e-06
5.583e-07
2.681e-07
1.594e-07
1.489e-07
1.568e-07
2.958e-07
5.566e-07
9.23e-07
6.86e-07
1.03e-06
2.727e-07
1.719e-08
1.457e-08
1.314e-07
1.335e-06
4.38e-05
0.0002487
0.0002481
0.0004104
0.0009618
0.000897
0.0009185
0.0002293
6.931e-05
2.282e-05
1.526e-05
2.836e-05
0.0001107
0.0001658
0.0001411
0.0001007
7.782e-05
0.0001216
0.0002724
0.0003534
0.0001215
7.431e-05
8.725e-05
1.837e-05
1.145e-06
3.814e-08
1.025e-09
8.102e-11
6.645e-11
1.268e-11
3.941e-12
6.42e-12
2.014e-11
1.784e-10
1.158e-09
1.648e-09
3.125e-09
9.748e-09
1.044e-08
1.279e-08
3.93e-08
3.342e-07
4.596e-06
7.091e-05
0.0003136
0.0008898
0.00156
0.004086
0.00442
0.002252
0.001785
0.001105
0.0004882
0.0001925
9.317e-05
3.302e-05
2.079e-05
2.595e-05
2.56e-05
1.412e-05
2.735e-06
9.974e-07
3.676e-07
4.389e-07
7.236e-07
2.151e-06
7.407e-06
2.511e-05
5.825e-05
7.344e-05
0.0001084
0.0001167
0.0002014
0.0006515
0.001233
0.001044
0.0003672
0.0002357
0.0001671
0.0001137
5.517e-05
1.941e-05
4.93e-06
2.53e-06
5.75e-06
1.674e-05
5.195e-05
9.729e-05
0.0001414
0.0001185
0.0001188
0.0001993
0.0002872
0.0002009
6.247e-05
9.298e-06
5.132e-06
1.653e-05
7.852e-05
0.0001519
0.0001727
6.74e-05
3.256e-05
3.181e-05
3.141e-05
3.095e-05
3.173e-05
3.062e-05
2.479e-05
1.795e-05
1.134e-05
9.422e-06
1.068e-05
1.595e-05
2.099e-05
2.203e-05
1.353e-05
5.682e-06
4.474e-06
8.285e-06
2.865e-05
7.76e-05
0.0001408
0.0001484
0.0002628
0.0006518
0.002224
0.0055
0.01873
0.1753
0.8039
0.9705
0.9965
0.9997
1
1
1
1
1
1
1
1
1
1
3.388e-06
6.668e-07
2.253e-07
1.144e-07
1.269e-07
2.049e-07
8.995e-07
1.068e-06
7.325e-07
3.097e-07
1.787e-07
6.796e-08
2.106e-08
5.139e-08
5.848e-07
4.462e-06
2.342e-05
6.714e-05
6.741e-05
8.397e-05
0.0002912
0.000938
0.002224
0.002101
0.001501
0.0003726
9.156e-05
4.548e-05
6.988e-05
0.0001214
0.000216
0.0001952
0.0001207
0.0001598
0.0002456
0.0002903
0.0001239
9.084e-05
0.0001472
9.295e-06
1.753e-07
1.875e-09
3.364e-11
5.121e-12
3.251e-11
2.174e-11
1.059e-11
1.004e-11
1.009e-11
1.665e-11
1.169e-10
2.952e-10
1.132e-09
1.976e-09
1.075e-09
4.638e-10
1.176e-09
1.883e-08
6.683e-07
3.003e-05
0.0002801
0.00095
0.001454
0.002794
0.002004
0.0006209
0.0002264
9.059e-05
1.647e-05
4.746e-06
1.596e-06
5.908e-07
3.29e-07
6.527e-07
7.806e-07
2.323e-06
2.204e-06
1.951e-06
8.358e-07
9.888e-07
3.546e-06
4.944e-05
0.001048
0.008103
0.01924
0.01286
0.008944
0.01055
0.0139
0.0209
0.02277
0.01932
0.01289
0.01325
0.01047
0.01523
0.01011
0.001523
0.0001103
7.05e-06
5.761e-06
1.06e-05
5e-05
8.222e-05
5.076e-05
2.154e-05
2.886e-05
3.485e-05
4.085e-05
1.991e-05
4.157e-06
7.956e-07
1.147e-06
2.086e-06
7.685e-06
1.266e-05
1.585e-05
7.048e-06
4.478e-06
3.058e-06
2.472e-06
2.21e-06
2.306e-06
2.695e-06
3.045e-06
3.08e-06
2.255e-06
1.866e-06
2.314e-06
5.588e-06
1.948e-05
6.326e-05
8.78e-05
6.677e-05
7.38e-05
0.0001909
0.0009862
0.004253
0.007976
0.01139
0.03413
0.2252
0.8313
0.9667
0.9931
0.999
0.9999
1
1
1
1
1
1
1
1
1
1
1
1
1
2.845e-06
5.366e-07
2.319e-07
1.544e-07
2.512e-07
5.191e-07
1.246e-06
5.513e-07
2.156e-07
1.038e-07
4.661e-08
5.542e-08
7.36e-08
3.784e-07
4.846e-06
1.83e-05
1.738e-05
6.81e-06
2.13e-06
1.191e-06
4.507e-06
3.619e-05
0.0003491
0.00167
0.002763
0.0007339
0.000117
4.53e-05
4.55e-05
0.0001477
0.0004388
0.0004098
0.0001723
0.000131
9.229e-05
0.0001373
0.0001926
0.0002981
0.0003487
1.019e-05
9.632e-08
6.011e-10
1.727e-11
7.524e-12
1.504e-10
3.536e-10
1.552e-10
4.075e-11
4.367e-12
1.494e-12
1.281e-11
1.061e-10
1.55e-09
4.716e-09
8.913e-10
9.216e-11
1.248e-10
2.299e-09
3.029e-07
3.56e-05
0.0003085
0.0006925
0.0003044
0.0001938
5.223e-05
1.122e-05
3.631e-06
1.672e-06
4.889e-07
3.493e-07
2.598e-07
2.541e-07
4.116e-07
3.42e-06
8.006e-06
3.83e-05
0.000136
0.0007326
0.001124
0.003203
0.0166
0.1807
0.873
0.9831
0.9957
0.9981
0.9988
0.9987
0.9981
0.9978
0.9976
0.9979
0.9984
0.9984
0.9981
0.9983
0.9973
0.9894
0.9102
0.1246
0.006734
0.00469
0.007497
0.00344
0.0003866
4.462e-05
3.426e-05
2.692e-05
1.815e-05
5.002e-06
5.912e-07
1.834e-07
5.876e-07
1.356e-06
7.339e-06
1.561e-05
3.114e-05
2.265e-05
2.047e-05
1.086e-05
7.797e-06
6.771e-06
7.503e-06
1.168e-05
2.201e-05
4.098e-05
4.724e-05
4.377e-05
5.542e-05
0.0001312
0.0006644
0.00366
0.007587
0.007136
0.0099
0.0318
0.393
0.8841
0.9709
0.9912
0.9975
0.9994
0.9999
1
1
1
1
1
1
1
1
1
1
1
1
1
1
1
1
1
1.028e-06
2.307e-07
1.635e-07
2.393e-07
7.482e-07
1.727e-06
1.084e-06
2.242e-07
5.61e-08
3.547e-08
2.83e-08
8.212e-08
3.981e-07
4.323e-06
2.042e-05
4.177e-05
7.812e-06
3.479e-07
3.399e-08
1.612e-08
1.119e-07
1.863e-06
8.023e-05
0.0009517
0.002948
0.001149
0.0004346
0.0001835
0.0001374
0.0003276
0.0005547
0.0002312
4.001e-05
9.439e-06
5.864e-06
9.591e-06
3.705e-05
0.0001569
0.0002687
1.892e-05
3.046e-07
2.457e-09
1.167e-10
8.501e-11
9.885e-10
2.313e-09
1.321e-09
2.254e-10
1.375e-11
3.272e-12
2.372e-11
3.966e-10
1.803e-08
8.236e-08
1.341e-08
6.328e-10
4.918e-10
7.51e-09
9.253e-07
0.0001121
0.0004578
0.0002655
4.166e-05
1.414e-05
4.71e-06
1.195e-06
3.413e-07
1.456e-07
8.765e-08
1.642e-07
7.174e-07
5.001e-06
3.356e-05
0.0003708
0.001411
0.01084
0.1321
0.8691
0.961
0.9903
0.9964
0.9989
0.9998
1
1
1
1
1
1
1
1
1
1
1
1
1
1
1
1
0.9996
0.9967
0.993
0.991
0.9734
0.7816
0.03779
0.00722
0.00183
0.0003886
3.099e-05
6.239e-06
3.044e-06
1.728e-05
5.389e-05
0.0001599
0.0002435
0.0006505
0.0006067
0.0006595
0.0003052
0.0001545
8.573e-05
7.163e-05
0.000129
0.0004925
0.00214
0.004982
0.006094
0.009512
0.0287
0.3811
0.8996
0.9821
0.9938
0.9975
0.9987
0.9996
0.9999
1
1
1
1
1
1
1
1
1
1
1
1
1
1
1
1
1
1
1
1
1
1
2.206e-07
8.532e-08
1.128e-07
2.467e-07
5.714e-07
1.31e-06
4.368e-07
1.269e-07
5.117e-08
1.42e-07
1.614e-07
1.118e-06
7.763e-06
3.255e-05
6.069e-05
7.175e-05
5.365e-06
1.319e-07
7.619e-09
2.302e-09
2.098e-08
1.569e-06
0.0001661
0.00164
0.003525
0.001069
0.0005275
0.0002928
0.0003191
0.000671
0.0007181
0.0001801
1.5e-05
2.603e-06
9.73e-07
1.687e-06
9.495e-06
3.855e-05
5.286e-05
6.375e-06
1.805e-07
6.163e-09
7.503e-10
7.137e-10
2.322e-09
2.51e-09
1.197e-09
1.16e-10
4.826e-12
1.339e-12
9.91e-12
5.964e-10
1.22e-07
2.379e-06
7.448e-07
2.744e-08
7.87e-09
5.767e-08
2.634e-06
0.0001026
0.0001474
3.478e-05
1.987e-06
3.243e-07
1.057e-07
5.97e-08
6.559e-08
2.162e-07
1.3e-06
9.456e-06
0.0002251
0.003015
0.05902
0.6753
0.927
0.987
0.9983
0.9999
1
1
1
1
1
1
1
1
1
1
1
1
1
1
1
1
1
1
1
1
1
1
1
1
1
1
0.9999
0.9989
0.9954
0.978
0.8649
0.08871
0.002195
0.0004472
0.001213
0.003454
0.01079
0.01048
0.01576
0.01771
0.01548
0.009838
0.006603
0.004968
0.006376
0.0236
0.2091
0.8644
0.976
0.9923
0.997
0.9986
0.9995
0.9999
1
1
1
1
1
1
1
1
1
1
1
1
1
1
1
1
1
1
1
1
1
1
1
1
1
1
1
1
1.103e-07
8.999e-08
1.341e-07
3.1e-07
6.552e-07
1.242e-06
3.319e-07
1.376e-07
1.438e-07
3.259e-07
7.257e-07
6.369e-06
2.982e-05
6.838e-05
0.0001198
8.417e-05
1.098e-05
3.27e-07
1.791e-08
3.511e-09
2.404e-08
1.454e-06
0.0001592
0.001503
0.004319
0.002255
0.00198
0.001531
0.001656
0.002109
0.00155
0.0003786
5.66e-05
1.099e-05
3.058e-06
3.348e-06
1.381e-05
3.572e-05
3.772e-05
9.04e-06
9.566e-07
7.403e-08
2.221e-08
1.524e-08
1.094e-08
9.964e-09
3.49e-09
1.014e-09
1.275e-10
8.66e-11
3.657e-10
7.747e-09
3.442e-07
2.344e-06
9.772e-07
9.836e-08
5.723e-08
3.149e-07
1.149e-05
6.432e-05
1.629e-05
1.606e-06
7.984e-08
3.916e-08
9.849e-08
3.99e-07
2.276e-06
4.377e-05
0.000977
0.02765
0.7385
0.9708
0.9959
0.9993
0.9999
1
1
1
1
1
1
1
1
1
1
1
1
1
1
1
1
1
1
1
1
1
1
1
1
1
1
1
1
1
1
1
1
1
0.9999
0.9994
0.9981
0.9973
0.9979
0.998
0.9981
0.9969
0.9965
0.9968
0.997
0.9973
0.9969
0.9961
0.9963
0.9979
0.9991
0.9999
1
1
1
1
1
1
1
1
1
1
1
1
1
1
1
1
1
1
1
1
1
1
1
1
1
1
1
1
1
1
1
1
1
1
1.491e-07
1.754e-07
3.485e-07
5.345e-07
9.731e-07
1.29e-06
6.21e-07
4.079e-07
1.149e-06
1.458e-06
3.284e-06
1.344e-05
4.333e-05
5.841e-05
8.708e-05
8.694e-05
4.913e-05
2.722e-06
2.185e-07
3.241e-08
1.407e-07
4.193e-06
0.0002292
0.001157
0.002072
0.001575
0.00226
0.003009
0.003945
0.004321
0.003143
0.001386
0.0004997
0.0001549
3.968e-05
2.682e-05
4.487e-05
7.173e-05
7.81e-05
4.666e-05
1.179e-05
2.441e-06
1.315e-06
8.797e-07
2.956e-07
3.101e-07
1.784e-07
8.858e-08
1.749e-08
9.236e-09
8.937e-09
4.189e-08
2.344e-07
5.484e-07
2.679e-07
9.949e-08
1.977e-07
2.147e-06
3.19e-05
4.654e-05
5.694e-06
1.396e-06
4.638e-07
1.326e-06
1.959e-05
0.0004322
0.00514
0.3327
0.9311
0.9919
0.9994
1
1
1
1
1
1
1
1
1
1
1
1
1
1
1
1
1
1
1
1
1
1
1
1
1
1
1
1
1
1
1
1
1
1
1
1
1
1
1
1
1
1
1
1
1
1
1
1
1
1
1
1
1
1
1
1
1
1
1
1
1
1
1
1
1
1
1
1
1
1
1
1
1
1
1
1
1
1
1
1
1
1
1
1
1
1
1
1
1
6.518e-07
8.09e-07
1.853e-06
9.123e-07
1.484e-06
1.115e-06
1.277e-06
2.017e-06
7.052e-06
3.592e-06
7.066e-06
5.732e-06
1.98e-05
1.709e-05
3.304e-05
1.978e-05
5.436e-06
1.422e-07
7.56e-09
1.162e-09
5.396e-09
1.736e-07
1.294e-05
7.741e-05
0.0002657
0.0003195
0.0005138
0.001
0.001758
0.001913
0.001602
0.00102
0.0008624
0.0005576
0.0002516
0.0001415
0.0001922
0.0002457
0.0003457
0.00047
0.0001421
5.272e-05
2.796e-05
2.488e-05
9.912e-06
1.786e-05
1.423e-05
1.059e-05
3.398e-06
2.288e-06
1.026e-06
8.532e-07
1.078e-06
1.484e-06
1.22e-06
6.616e-07
1.301e-06
4.212e-06
2.066e-05
2.595e-05
1.31e-05
1.424e-05
4.277e-05
0.001014
0.06676
0.8554
0.9791
0.9989
0.9999
1
1
1
1
1
1
1
1
1
1
1
1
1
1
1
1
1
1
1
1
1
1
1
1
1
1
1
1
1
1
1
1
1
1
1
1
1
1
1
1
1
1
1
1
1
1
1
1
1
1
1
1
1
1
1
1
1
1
1
1
1
1
1
1
1
1
1
1
1
1
1
1
1
1
1
1
1
1
1
1
1
1
1
1
1
1
1
1
1
1
1
1.618e-06
2.323e-06
7.85e-06
2.992e-06
2.304e-06
1.014e-06
1.587e-06
3.716e-06
1.098e-05
4.418e-06
8.001e-06
4.97e-06
7.235e-06
1.094e-05
9.289e-06
8.81e-07
1.167e-07
1.916e-09
8.143e-11
1.491e-11
1.29e-10
1.393e-08
2.198e-06
3.153e-05
0.0001904
0.0001731
0.0004175
0.0008215
0.001628
0.00172
0.001534
0.001098
0.001252
0.001328
0.0009381
0.0007395
0.001025
0.001136
0.001621
0.002779
0.001022
0.0004353
0.0002253
0.0002559
0.0001097
0.0001231
0.0001046
0.0001178
0.0001141
0.0001261
6.264e-05
2.406e-05
1.266e-05
4.933e-06
2.62e-06
1.66e-06
2.076e-06
5.691e-06
5.057e-05
0.0001487
0.0005381
0.005613
0.07621
0.8653
0.9913
0.9996
1
1
1
1
1
1
1
1
1
1
1
1
1
1
1
1
1
1
1
1
1
1
1
1
1
1
1
1
1
1
1
1
1
1
1
1
1
1
1
1
1
1
1
1
1
1
1
1
1
1
1
1
1
1
1
1
1
1
1
1
1
1
1
1
1
1
1
1
1
1
1
1
1
1
1
1
1
1
1
1
1
1
1
1
1
1
1
1
1
1
1
1
1
1
3.872e-06
7.822e-06
3.506e-05
1.796e-05
7.449e-06
3.137e-06
6.384e-06
1.012e-05
1.676e-05
8.001e-06
8.852e-06
9.305e-06
1.452e-05
2.082e-05
2.984e-06
9.008e-08
4.74e-09
9.252e-11
8.593e-12
3.359e-12
8.775e-11
1.198e-08
1.708e-06
3.392e-05
0.0003114
0.0002408
0.0004331
0.0008297
0.001389
0.001253
0.001063
0.0006755
0.0009442
0.001131
0.001468
0.001658
0.002783
0.002681
0.003405
0.004947
0.002401
0.001562
0.001071
0.001111
0.000392
0.000261
0.0001162
0.0001112
0.0001927
0.0003803
0.0002368
6.512e-05
2.793e-05
8.648e-06
8.004e-06
7.303e-06
1.519e-05
4.74e-05
0.0007892
0.01133
0.1445
0.8773
0.9936
0.9999
1
1
1
1
1
1
1
1
1
1
1
1
1
1
1
1
1
1
1
1
1
1
1
1
1
1
1
1
1
1
1
1
1
1
1
1
1
1
1
1
1
1
1
1
1
1
1
1
1
1
1
1
1
1
1
1
1
1
1
1
1
1
1
1
1
1
1
1
1
1
1
1
1
1
1
1
1
1
1
1
1
1
1
1
1
1
1
1
1
1
1
1
1
1
1
1
2.469e-06
8.049e-06
5.545e-05
2.893e-05
1.074e-05
8.646e-06
1.893e-05
7.143e-05
7.248e-05
3.612e-05
2.015e-05
1.725e-05
1.687e-05
2.229e-05
5.979e-07
1.285e-08
9.993e-10
7.959e-11
1.879e-11
1.825e-11
7.485e-10
8.101e-08
1.285e-05
0.000181
0.0009026
0.0004164
0.0005662
0.0007605
0.001225
0.001246
0.001153
0.0008239
0.001307
0.001598
0.00155
0.001722
0.002293
0.001293
0.0008116
0.0008922
0.0008122
0.001302
0.002623
0.003916
0.001606
0.0005784
9.751e-05
4.543e-05
3.017e-05
3.989e-05
2.636e-05
1.275e-05
1.636e-05
2.363e-05
4.235e-05
0.0001164
0.0007247
0.004941
0.3304
0.9415
0.9955
0.9998
1
1
1
1
1
1
1
1
1
1
1
1
1
1
1
1
1
1
1
1
1
1
1
1
1
1
1
1
1
1
1
1
1
1
1
1
1
1
1
1
1
1
1
1
1
1
1
1
1
1
1
1
1
1
1
1
1
1
1
1
1
1
1
1
1
1
1
1
1
1
1
1
1
1
1
1
1
1
1
1
1
1
1
1
1
1
1
1
1
1
1
1
1
1
1
1
1
1
6.136e-06
1.89e-05
8.896e-05
5.194e-05
1.066e-05
1.272e-05
4.735e-05
0.0002745
0.0002523
9.238e-05
3.498e-05
2.188e-05
8.672e-06
8.522e-06
2.327e-07
7.615e-09
2.491e-09
1.5e-09
9.962e-10
2.208e-09
6.235e-08
2.751e-06
0.0001517
0.00117
0.003639
0.001526
0.001657
0.001437
0.001516
0.001185
0.00103
0.0009992
0.001907
0.002534
0.002008
0.001889
0.001923
0.000982
0.0004983
0.0003748
0.0002754
0.000468
0.0009695
0.001581
0.0009425
0.000548
0.0001243
3.525e-05
9.041e-06
5.055e-06
2.76e-06
3.033e-06
1.356e-05
9.125e-05
0.0005392
0.006015
0.1961
0.8939
0.9958
0.9998
1
1
1
1
1
1
1
1
1
1
1
1
1
1
1
1
1
1
1
1
1
1
1
1
1
1
1
1
1
1
1
1
1
1
1
1
1
1
1
1
1
1
1
1
1
1
1
1
1
1
1
1
1
1
1
1
1
1
1
1
1
1
1
1
1
1
1
1
1
1
1
1
1
1
1
1
1
1
1
1
1
1
1
1
1
1
1
1
1
1
1
1
1
1
1
1
1
1
1
1
1.367e-05
3.599e-05
0.0001571
9.986e-05
2.121e-05
3.456e-05
9.206e-05
0.000501
0.0004402
0.0001326
2.654e-05
1.737e-05
9.121e-06
7.136e-06
4.212e-07
4.584e-08
5.805e-08
1.672e-07
2.466e-07
6.044e-07
6.356e-06
6.38e-05
0.0006296
0.002027
0.003722
0.001874
0.002296
0.001916
0.001762
0.001098
0.001228
0.001876
0.00419
0.006321
0.004115
0.002758
0.001482
0.0006547
0.0002691
0.0001713
0.0001069
0.0001765
0.000303
0.0004511
0.0005136
0.0004961
0.0001898
6.863e-05
1.596e-05
4.204e-06
1.548e-06
6.628e-06
0.000104
0.002305
0.09906
0.895
0.9955
0.9998
1
1
1
1
1
1
1
1
1
1
1
1
1
1
1
1
1
1
1
1
1
1
1
1
1
1
1
1
1
1
1
1
1
1
1
1
1
1
1
1
1
1
1
1
1
1
1
1
1
1
1
1
1
1
1
1
1
1
1
1
1
1
1
1
1
1
1
1
1
1
1
1
1
1
1
1
1
1
1
1
1
1
1
1
1
1
1
1
1
1
1
1
1
1
1
1
1
1
1
1
1
1
5.018e-05
0.0001204
0.0003725
0.0001528
3.777e-05
5.529e-05
7.745e-05
0.0004974
0.00076
0.0002998
7.545e-05
7.975e-05
4.763e-05
3.411e-05
4.334e-06
8.158e-07
1.134e-06
4.801e-06
1.082e-05
4.93e-05
0.0002021
0.0003507
0.0005104
0.0004784
0.0004176
0.000484
0.001568
0.001346
0.001248
0.0006721
0.000577
0.0007024
0.001803
0.003585
0.003191
0.002417
0.001354
0.0007259
0.0004612
0.0003409
0.0001838
0.0001597
0.0001322
0.0001122
0.0001574
0.0002479
0.0002254
0.0001624
7.046e-05
2.135e-05
3.351e-05
0.000258
0.02593
0.8321
0.9921
0.9997
1
1
1
1
1
1
1
1
1
1
1
1
1
1
1
1
1
1
1
1
1
1
1
1
1
1
1
1
1
1
1
1
1
1
1
1
1
1
1
1
1
1
1
1
1
1
1
1
1
1
1
1
1
1
1
1
1
1
1
1
1
1
1
1
1
1
1
1
1
1
1
1
1
1
1
1
1
1
1
1
1
1
1
1
1
1
1
1
1
1
1
1
1
1
1
1
1
1
1
1
1
1
1
1
8.74e-05
0.0001926
0.0005217
0.0001918
5.442e-05
3.246e-05
2.278e-05
0.0001707
0.0005855
0.0005829
0.0002179
0.0003914
0.0002502
0.0001755
4.959e-05
1.728e-05
2.418e-05
9.758e-05
0.0001505
0.0004713
0.0009171
0.0006243
0.0003393
0.0001791
0.0001496
0.0002632
0.001709
0.001427
0.001343
0.0007853
0.0005841
0.0004486
0.0008569
0.001848
0.002602
0.003033
0.002423
0.001742
0.001521
0.001052
0.0003402
0.0001523
6.792e-05
3.748e-05
4.983e-05
0.0001321
0.0002178
0.0003764
0.0007662
0.001125
0.009637
0.547
0.9837
0.9995
1
1
1
1
1
1
1
1
1
1
1
1
1
1
1
1
1
1
1
1
1
1
1
1
1
1
1
1
1
1
0.9999
0.9998
0.9992
0.9978
0.9966
0.9962
0.9971
0.9973
0.9962
0.9967
0.9978
0.9985
0.9997
0.9999
1
1
1
1
1
1
1
1
1
1
1
1
1
1
1
1
1
1
1
1
1
1
1
1
1
1
1
1
1
1
1
1
1
1
1
1
1
1
1
1
1
1
1
1
1
1
1
1
1
1
1
1
1
1
1
1
1
1
1
1
1
1
0.0001482
0.000291
0.0007887
0.0001756
5.066e-05
1.047e-05
5.296e-06
5.094e-05
0.0006467
0.001844
0.001544
0.002723
0.001527
0.001004
0.0004327
0.0002724
0.0001882
0.0004603
0.0004188
0.0009423
0.001265
0.0006335
0.0003216
0.0001463
0.000249
0.0006287
0.004047
0.003258
0.002404
0.001271
0.0008333
0.0003825
0.0004405
0.0008401
0.001737
0.003496
0.005212
0.003929
0.003884
0.002636
0.0007907
0.0002779
7.878e-05
3.332e-05
4.588e-05
0.0001361
0.000338
0.001298
0.01104
0.134
0.9196
0.9977
1
1
1
1
1
1
1
1
1
1
1
1
1
1
1
1
1
1
1
1
1
1
1
1
1
1
1
0.9999
0.9996
0.9981
0.997
0.9937
0.9861
0.9384
0.6668
0.1143
0.02964
0.01347
0.01045
0.008084
0.01057
0.02161
0.06031
0.1323
0.7627
0.9542
0.991
0.9971
0.9994
0.9998
1
1
1
1
1
1
1
1
1
1
1
1
1
1
1
1
1
1
1
1
1
1
1
1
1
1
1
1
1
1
1
1
1
1
1
1
1
1
1
1
1
1
1
1
1
1
1
1
1
1
1
1
1
1
1
1
1
1
0.000136
0.0002114
0.0006601
0.0002171
0.0001645
2.276e-05
1.005e-05
3.281e-05
0.0004032
0.0008094
0.001256
0.002342
0.00222
0.001527
0.00075
0.0007016
0.0004782
0.000813
0.0011
0.00149
0.001398
0.0007684
0.0005075
0.0002922
0.0003142
0.0005228
0.002386
0.002447
0.002813
0.002235
0.001553
0.0004966
0.0003731
0.0004434
0.00109
0.00289
0.005525
0.003593
0.003318
0.002284
0.0007744
0.0002793
9.431e-05
7.756e-05
0.000154
0.0006676
0.002881
0.03854
0.7609
0.9852
0.9997
1
1
1
1
1
1
1
1
1
1
1
1
1
1
1
1
1
1
1
1
1
1
1
1
1
0.9999
0.9992
0.9938
0.9671
0.7968
0.128
0.03412
0.01447
0.005243
0.001542
0.0003739
0.0001783
0.0001416
0.0001272
8.178e-05
5.678e-05
0.0001142
0.0002528
0.000432
0.000696
0.001634
0.003729
0.0159
0.06418
0.3829
0.8626
0.9804
0.9979
0.9997
0.9999
1
1
1
1
1
1
1
1
1
1
1
1
1
1
1
1
1
1
1
1
1
1
1
1
1
1
1
1
1
1
1
1
1
1
1
1
1
1
1
1
1
1
1
1
1
1
1
1
1
1
1
1
1
1
0.000146
0.0001472
0.000492
0.0002715
0.0004257
4.762e-05
2.841e-05
3.107e-05
0.000184
0.0003697
0.0008543
0.001444
0.002228
0.00201
0.0007285
0.0005873
0.0004948
0.0009649
0.002457
0.003071
0.002361
0.001487
0.001316
0.0009837
0.0008799
0.0008037
0.001782
0.001917
0.002585
0.002843
0.002115
0.0005703
0.000441
0.0004149
0.0009665
0.002482
0.005078
0.003187
0.002685
0.001514
0.0005388
0.0002694
0.0001656
0.0002168
0.0008794
0.007065
0.1366
0.9218
0.9977
0.9999
1
1
1
1
1
1
1
1
1
1
1
1
1
1
1
1
1
1
1
1
1
1
1
0.9999
0.999
0.9925
0.9482
0.6785
0.08226
0.013
0.001086
0.0003044
0.0001989
0.0001059
3.47e-05
1.438e-05
3.45e-06
2.759e-06
5.171e-06
6.404e-06
4.476e-06
3.684e-06
8.964e-06
2.278e-05
2.878e-05
3.75e-05
3.716e-05
4.09e-05
0.0001146
0.0002904
0.0004729
0.001814
0.01221
0.1178
0.7446
0.9511
0.9952
0.9995
0.9999
1
1
1
1
1
1
1
1
1
1
1
1
1
1
1
1
1
1
1
1
1
1
1
1
1
1
1
1
1
1
1
1
1
1
1
1
1
1
1
1
1
1
1
1
1
1
0.9999
0.9989
0.9953
0.9879
0.9547
0.0002141
0.0001134
0.0004081
0.0002225
0.0004858
6.581e-05
4.985e-05
2.365e-05
6.437e-05
0.0001433
0.0004088
0.0009041
0.002413
0.002887
0.000743
0.0004669
0.0005766
0.001669
0.002047
0.001214
0.0004976
0.0004592
0.001151
0.00284
0.002498
0.001126
0.001044
0.001315
0.002119
0.002644
0.002409
0.001047
0.0009429
0.000625
0.0007518
0.0008676
0.001074
0.0006951
0.0008836
0.0006576
0.000341
0.0002749
0.0003935
0.001477
0.02652
0.6511
0.9802
0.9996
1
1
1
1
1
1
1
1
1
1
1
1
1
1
1
1
1
1
1
1
1
1
1
0.9999
0.9969
0.9561
0.6615
0.07855
0.009851
0.001225
0.0001785
5.914e-05
1.207e-05
7.552e-06
6.951e-06
5.513e-06
1.563e-06
1.213e-06
5.591e-07
7.639e-07
1.499e-06
2.429e-06
2.111e-06
1.967e-06
4.389e-06
9.71e-06
7.084e-06
4.835e-06
2.503e-06
2.109e-06
4.451e-06
6.781e-06
6.493e-06
1.363e-05
5.135e-05
0.0003275
0.002436
0.01923
0.139
0.7335
0.9677
0.9984
1
1
1
1
1
1
1
1
1
1
1
1
1
1
1
1
1
1
1
1
1
1
1
1
1
1
1
1
1
1
1
1
1
1
1
1
1
1
1
1
1
0.9997
0.9989
0.9946
0.9662
0.762
0.1612
0.03958
0.02958
0.002388
0.0002654
0.0001039
0.0004857
0.0002405
0.000431
7.216e-05
5.044e-05
2.565e-05
8.178e-05
0.0001551
0.0002246
0.000418
0.001513
0.002582
0.0005657
0.000331
0.0003227
0.000915
0.0009476
0.0007517
0.0001951
0.0001813
0.0004574
0.002588
0.002878
0.00147
0.001217
0.001423
0.002325
0.002697
0.002739
0.002055
0.002365
0.001688
0.001221
0.0005876
0.000336
0.0001997
0.0003239
0.0004033
0.0005106
0.0008093
0.004145
0.06005
0.8868
0.9952
0.9999