/*--------------------------------*- C++ -*----------------------------------*\
| =========                 |                                                 |
| \\      /  F ield         | OpenFOAM: The Open Source CFD Toolbox           |
|  \\    /   O peration     | Version:  5.x                                   |
|   \\  /    A nd           | Web:      www.OpenFOAM.org                      |
|    \\/     M anipulation  |                                                 |
\*---------------------------------------------------------------------------*/
FoamFile
{
    version     2.0;
    format      ascii;
    class       volScalarField;
    location    "105";
    object      gamma;
}
// * * * * * * * * * * * * * * * * * * * * * * * * * * * * * * * * * * * * * //

dimensions      [0 0 0 0 0 0 0];

internalField   nonuniform List<scalar> 
86400
(
1.106e-05
1.443e-05
2.248e-05
4.512e-05
9.774e-05
0.0001739
0.0002276
0.0002964
0.0003867
0.0004259
0.0004815
0.0004912
0.0005774
0.0007505
0.001338
0.002203
0.00383
0.003813
0.003832
0.003851
0.004541
0.005331
0.007033
0.006601
0.006386
0.008134
0.008889
0.009457
0.009019
0.008751
0.008401
0.008883
0.009423
0.009868
0.01044
0.0118
0.01166
0.01066
0.008435
0.007406
0.006484
0.006615
0.006216
0.005478
0.005403
0.005972
0.007287
0.008242
0.008913
0.008525
0.008562
0.008798
0.009015
0.009046
0.008973
0.009429
0.01012
0.0105
0.01055
0.01025
0.00925
0.009108
0.008558
0.008683
0.00988
0.0118
0.01361
0.01447
0.01267
0.01158
0.01225
0.01371
0.01572
0.01444
0.01303
0.01142
0.009882
0.009894
0.01138
0.01303
0.01622
0.01817
0.01801
0.01723
0.01691
0.01565
0.01583
0.01544
0.01591
0.01645
0.01578
0.01743
0.01987
0.02506
0.02786
0.02942
0.02645
0.02533
0.02473
0.02397
0.02301
0.02365
0.02146
0.0182
0.01277
0.01182
0.01307
0.01917
0.023
0.02552
0.02276
0.02141
0.0191
0.0157
0.01142
0.009171
0.008369
0.008205
0.007715
0.00706
0.006579
0.006197
0.006366
0.00634
0.006265
0.006262
0.006186
0.006031
0.00555
0.004678
0.003572
0.00315
0.003037
0.003215
0.003518
0.004061
0.004583
0.005322
0.003533
0.001633
0.0008634
0.0009269
0.001388
0.00223
0.002106
0.00142
0.001094
0.001261
0.001688
0.002051
0.002375
0.002776
0.003786
0.004038
0.004334
0.004894
0.004779
0.004933
0.06974
0.9463
1.438e-05
1.711e-05
2.51e-05
4.254e-05
8.061e-05
0.0001274
0.0001543
0.0001876
0.0002181
0.0001833
0.0001962
0.0002395
0.0003798
0.0007493
0.001531
0.00234
0.003141
0.003527
0.004429
0.006082
0.009168
0.01355
0.01777
0.0172
0.01586
0.01531
0.01311
0.01067
0.008681
0.007342
0.006903
0.008122
0.009973
0.01216
0.01437
0.01671
0.01716
0.01689
0.01502
0.01373
0.01191
0.01147
0.0109
0.01007
0.009848
0.01067
0.01167
0.01264
0.01356
0.01372
0.01452
0.01566
0.01673
0.01743
0.01725
0.01577
0.01401
0.01253
0.01133
0.0108
0.01032
0.01049
0.009923
0.01021
0.01169
0.01524
0.01781
0.01922
0.01748
0.01677
0.0179
0.01834
0.01717
0.01405
0.01183
0.01142
0.01344
0.01689
0.02026
0.02199
0.0249
0.02694
0.02925
0.03045
0.03129
0.02995
0.03051
0.02988
0.03168
0.03429
0.03525
0.03857
0.04091
0.04185
0.04045
0.03842
0.03413
0.03029
0.02621
0.02456
0.02453
0.02801
0.03148
0.0279
0.01822
0.0149
0.01522
0.01916
0.02526
0.02956
0.02635
0.02611
0.02712
0.02725
0.02522
0.02323
0.02212
0.02224
0.02126
0.01898
0.01758
0.01627
0.01621
0.01622
0.0161
0.01614
0.01583
0.01523
0.01345
0.01094
0.008051
0.007038
0.006754
0.007962
0.009359
0.01064
0.01129
0.01184
0.008495
0.004847
0.003745
0.003879
0.004471
0.005841
0.006244
0.005147
0.004799
0.005841
0.007884
0.008309
0.007724
0.007365
0.008428
0.01035
0.01659
0.03141
0.05684
0.1394
0.4293
0.9144
2.323e-05
2.628e-05
3.335e-05
4.51e-05
7.292e-05
9.899e-05
0.0001091
0.0001257
0.0001308
0.0001117
0.000129
0.0002009
0.0003793
0.000855
0.001709
0.00277
0.003862
0.005293
0.006704
0.0101
0.014
0.02068
0.02604
0.02468
0.02433
0.02626
0.02405
0.01976
0.01562
0.0121
0.01148
0.01463
0.01821
0.02072
0.02118
0.02092
0.01964
0.01927
0.01763
0.01617
0.01404
0.0136
0.01299
0.01327
0.01427
0.01642
0.01802
0.01969
0.02158
0.01981
0.0172
0.01457
0.01263
0.01178
0.01233
0.0116
0.01089
0.01008
0.009757
0.009764
0.01018
0.01093
0.01099
0.01243
0.01374
0.01558
0.01712
0.01811
0.01699
0.01657
0.01692
0.01508
0.013
0.01197
0.01243
0.01692
0.02507
0.03338
0.03807
0.04033
0.04261
0.04472
0.04822
0.05116
0.05524
0.05394
0.05277
0.0492
0.04066
0.03161
0.02328
0.0181
0.01747
0.02082
0.02417
0.02718
0.02834
0.02418
0.02061
0.0198
0.02034
0.02327
0.02693
0.02311
0.01584
0.01417
0.01656
0.02272
0.03316
0.03716
0.03501
0.03939
0.04504
0.04786
0.04492
0.0421
0.03812
0.03697
0.03385
0.02969
0.02605
0.02488
0.02466
0.02479
0.02469
0.0248
0.02436
0.02346
0.02043
0.01687
0.01303
0.01153
0.01095
0.01277
0.01604
0.01936
0.02191
0.02389
0.02031
0.0155
0.014
0.01426
0.0157
0.01829
0.01951
0.01678
0.01505
0.01596
0.01912
0.01876
0.01845
0.01761
0.0224
0.03309
0.06584
0.1668
0.2931
0.6414
0.823
0.9639
4.385e-05
4.508e-05
4.793e-05
5.103e-05
6.426e-05
6.798e-05
6.419e-05
6.843e-05
7.252e-05
7.318e-05
0.0001025
0.0001239
0.000174
0.0003595
0.0007961
0.001339
0.00232
0.002747
0.002201
0.00244
0.002914
0.003653
0.00536
0.006469
0.007806
0.01089
0.01322
0.01316
0.01248
0.01116
0.01114
0.01581
0.02167
0.02616
0.02585
0.0237
0.02126
0.02157
0.02093
0.02046
0.01929
0.0206
0.02323
0.02775
0.02744
0.02473
0.0195
0.01593
0.01479
0.01297
0.01024
0.00846
0.007884
0.007448
0.008023
0.007251
0.00623
0.005889
0.006926
0.008446
0.0102
0.0121
0.0133
0.01493
0.01582
0.01643
0.0161
0.01563
0.01424
0.01627
0.0191
0.01764
0.01682
0.01768
0.01789
0.02644
0.03922
0.04723
0.04573
0.04708
0.04164
0.03657
0.03346
0.02998
0.02771
0.02709
0.02562
0.02371
0.0207
0.0186
0.01644
0.01417
0.01485
0.01765
0.02033
0.02269
0.0253
0.02105
0.01806
0.01764
0.01895
0.02251
0.02816
0.02584
0.01821
0.01381
0.01342
0.01711
0.02267
0.02541
0.02436
0.02616
0.02714
0.03478
0.04032
0.0488
0.05296
0.05957
0.05473
0.04922
0.04192
0.04141
0.04101
0.04143
0.04146
0.04179
0.04129
0.04089
0.03778
0.03366
0.02807
0.02623
0.02628
0.02839
0.0315
0.03279
0.03233
0.03035
0.03181
0.03289
0.0357
0.03602
0.03687
0.03802
0.04233
0.04368
0.0452
0.04873
0.05878
0.05692
0.05912
0.06102
0.08153
0.1406
0.2201
0.4454
0.6245
0.8859
0.9767
0.9981
0.0001019
8.844e-05
7.837e-05
6.916e-05
6.382e-05
5.642e-05
4.487e-05
4.558e-05
5.391e-05
6.129e-05
9.391e-05
8.14e-05
5.416e-05
8.157e-05
0.0002226
0.0005639
0.001931
0.001755
0.0008872
0.0006136
0.0007229
0.0009184
0.001516
0.001593
0.002131
0.004169
0.009085
0.01607
0.02231
0.01761
0.01247
0.01234
0.01214
0.01209
0.01191
0.01075
0.008959
0.01055
0.01392
0.01855
0.01794
0.01452
0.009937
0.00815
0.006257
0.005076
0.004364
0.00468
0.006211
0.007627
0.00685
0.005233
0.005606
0.006173
0.00707
0.00615
0.004819
0.004841
0.006485
0.00969
0.01402
0.01886
0.02346
0.02617
0.02397
0.0185
0.01536
0.01252
0.009803
0.009549
0.01091
0.01017
0.01234
0.01674
0.01918
0.02247
0.02678
0.0252
0.02232
0.02432
0.02086
0.01698
0.01508
0.01409
0.0143
0.0168
0.01771
0.01645
0.01473
0.01389
0.01183
0.01107
0.0129
0.01592
0.02141
0.02451
0.02727
0.02277
0.02061
0.01808
0.01399
0.01186
0.01386
0.01515
0.01557
0.01652
0.0172
0.02001
0.02252
0.02227
0.01857
0.01762
0.01649
0.02308
0.02512
0.02829
0.02736
0.02899
0.02405
0.02394
0.02218
0.02311
0.02289
0.02309
0.02316
0.02336
0.0233
0.02455
0.02556
0.02643
0.02622
0.02593
0.02545
0.02445
0.02455
0.02378
0.02378
0.02466
0.0287
0.03252
0.03832
0.0421
0.04532
0.05062
0.06063
0.06545
0.06712
0.06618
0.07844
0.0841
0.1123
0.1715
0.3017
0.4505
0.5412
0.6953
0.8392
0.9677
0.9956
0.9997
0.000193
0.0001481
0.0001195
9.54e-05
6.818e-05
5.098e-05
4.228e-05
4.393e-05
6.105e-05
8.715e-05
0.0001513
8.73e-05
3.356e-05
2.815e-05
0.0001115
0.0002996
0.001239
0.001053
0.0004742
0.0002749
0.0004144
0.0005597
0.0009328
0.0006705
0.00064
0.0009109
0.001678
0.003991
0.008206
0.007474
0.0049
0.003877
0.003366
0.003307
0.004116
0.004245
0.003003
0.002899
0.003524
0.003439
0.002208
0.001406
0.0006192
0.0003405
0.0002213
0.0001268
7.003e-05
8.132e-05
0.0001531
0.0002989
0.0004105
0.0005341
0.0008555
0.001777
0.002765
0.002459
0.001558
0.0014
0.001999
0.004117
0.007746
0.01189
0.01374
0.01548
0.01462
0.01111
0.01148
0.01016
0.007724
0.007021
0.008457
0.008024
0.01069
0.01396
0.01332
0.01169
0.01055
0.01
0.01133
0.01631
0.0182
0.01737
0.01501
0.0145
0.0155
0.0198
0.02338
0.02338
0.02384
0.02539
0.02804
0.02606
0.02777
0.029
0.03002
0.0317
0.03216
0.02923
0.0312
0.02961
0.02274
0.01697
0.01607
0.01648
0.01896
0.02004
0.01604
0.01664
0.01677
0.0154
0.01011
0.007449
0.005534
0.00777
0.009661
0.01223
0.01225
0.01181
0.009897
0.01014
0.009442
0.009707
0.009614
0.009629
0.009625
0.009641
0.009744
0.01092
0.01258
0.01478
0.01658
0.01816
0.01953
0.01959
0.02109
0.02073
0.02304
0.0259
0.03168
0.0355
0.04141
0.04534
0.04892
0.05448
0.06616
0.07773
0.0923
0.1118
0.1554
0.2254
0.4041
0.464
0.5916
0.6612
0.7793
0.8983
0.9684
0.9948
0.9995
0.9999
0.0003153
0.0002047
0.0001429
9.529e-05
7.192e-05
6.09e-05
6.36e-05
7.591e-05
0.0001272
0.0001825
0.0002605
0.0001265
2.817e-05
1.89e-05
6.123e-05
0.0002329
0.001549
0.002609
0.001397
0.0009237
0.001625
0.00187
0.002521
0.001315
0.000821
0.0008419
0.001279
0.002434
0.00534
0.005307
0.003719
0.002169
0.001742
0.001883
0.002632
0.002801
0.001615
0.001213
0.001452
0.00117
0.0004689
0.0001638
3.414e-05
1.056e-05
5.817e-06
2.116e-06
1.093e-06
1.72e-06
6.088e-06
2.088e-05
4.695e-05
5.264e-05
5.851e-05
8.899e-05
9.557e-05
0.0001131
0.0001447
0.0002754
0.0007419
0.002213
0.004399
0.007654
0.01006
0.01411
0.01481
0.01001
0.01012
0.008567
0.006727
0.005424
0.006588
0.005942
0.009294
0.01317
0.01397
0.01215
0.01109
0.01115
0.01303
0.01988
0.02644
0.03104
0.0333
0.03581
0.038
0.04051
0.0412
0.03699
0.04045
0.0506
0.05451
0.05153
0.04942
0.04746
0.04658
0.04294
0.03395
0.02583
0.02547
0.02423
0.0225
0.01774
0.01759
0.02224
0.03224
0.03573
0.02953
0.02743
0.02389
0.0176
0.01098
0.006509
0.00431
0.005512
0.007335
0.008188
0.007442
0.006279
0.005138
0.005379
0.005243
0.005405
0.005486
0.005552
0.005631
0.005703
0.005823
0.006622
0.008037
0.01025
0.0125
0.01477
0.01678
0.01716
0.01939
0.02364
0.03046
0.03904
0.05295
0.06249
0.07431
0.08629
0.09975
0.118
0.1593
0.2279
0.344
0.4612
0.5712
0.6599
0.7633
0.7874
0.8714
0.9149
0.9647
0.9877
0.998
0.9995
0.9999
1
0.000587
0.0002947
0.0001695
0.0001042
8.567e-05
8.241e-05
0.0001195
0.0001729
0.0002228
0.0001788
0.0001949
8.463e-05
1.95e-05
2.011e-05
8.054e-05
0.0003892
0.002904
0.007428
0.006353
0.007017
0.00956
0.00989
0.01089
0.005831
0.003132
0.001598
0.0011
0.001282
0.002302
0.002737
0.002498
0.002057
0.001761
0.002199
0.003411
0.004045
0.002393
0.001805
0.001822
0.0007058
0.000149
2.326e-05
3.407e-06
8.919e-07
7.948e-07
3.266e-07
1.745e-07
2.222e-07
3.974e-07
1.219e-06
3.191e-06
3.763e-06
5.132e-06
9.131e-06
9.41e-06
1.053e-05
1.958e-05
6.329e-05
0.0002687
0.001218
0.002976
0.00578
0.008757
0.01542
0.01672
0.01162
0.0102
0.008249
0.006471
0.005774
0.006852
0.006731
0.009552
0.01412
0.01756
0.01852
0.01803
0.02151
0.0268
0.03798
0.04513
0.0499
0.05414
0.06086
0.06749
0.07388
0.07367
0.06365
0.06084
0.07362
0.08406
0.08666
0.07094
0.06956
0.06973
0.0646
0.056
0.04451
0.03804
0.03838
0.04649
0.04751
0.04773
0.04298
0.04288
0.03833
0.03263
0.03214
0.03069
0.02345
0.01443
0.006567
0.004526
0.00577
0.008424
0.009427
0.009524
0.007139
0.005814
0.006171
0.006363
0.006542
0.006824
0.0072
0.007621
0.00805
0.008575
0.01
0.01237
0.01584
0.01993
0.02432
0.02841
0.03077
0.03652
0.0474
0.06621
0.09051
0.1269
0.1667
0.2326
0.3211
0.4211
0.479
0.5599
0.6559
0.759
0.8276
0.8853
0.9183
0.9527
0.9634
0.9824
0.9895
0.9974
0.9993
0.9999
1
1
1
0.0009993
0.0003678
0.0001754
0.0001001
9.131e-05
0.0001105
0.0002445
0.0002627
0.0001995
0.0001141
7.641e-05
4.357e-05
2.538e-05
5.003e-05
0.0002295
0.0008787
0.002204
0.003388
0.002737
0.002881
0.005503
0.01206
0.02219
0.02325
0.01851
0.007966
0.00323
0.001885
0.002085
0.002608
0.003342
0.003007
0.002234
0.002526
0.003266
0.003783
0.002564
0.002121
0.002462
0.0004881
5.219e-05
4.282e-06
4.881e-07
1.764e-07
4.557e-07
3.635e-07
2.471e-07
2.387e-07
2.379e-07
3.077e-07
8.518e-07
1.383e-06
2.788e-06
3.716e-06
2.702e-06
1.756e-06
2.997e-06
1.346e-05
9.213e-05
0.0007173
0.00257
0.005526
0.008163
0.01341
0.01402
0.01005
0.008663
0.008361
0.00663
0.006636
0.007243
0.007149
0.009027
0.01358
0.01736
0.02768
0.04032
0.06488
0.07787
0.08288
0.08036
0.07916
0.09404
0.09703
0.08483
0.07542
0.07543
0.0856
0.1105
0.1486
0.1635
0.171
0.1376
0.1101
0.08814
0.07651
0.07709
0.07113
0.06792
0.0615
0.08587
0.0879
0.09464
0.08048
0.06756
0.05691
0.0605
0.05315
0.04825
0.03398
0.02083
0.01134
0.01067
0.00937
0.01071
0.01051
0.01075
0.008695
0.008123
0.007951
0.008193
0.00885
0.009862
0.01116
0.01268
0.01443
0.01675
0.02062
0.02654
0.0352
0.04872
0.06747
0.09074
0.1231
0.1808
0.2749
0.4177
0.5148
0.5761
0.6364
0.7108
0.7795
0.8365
0.8678
0.8949
0.9208
0.9492
0.9665
0.9803
0.9871
0.9939
0.9963
0.9986
0.9994
0.9998
0.9999
1
1
1
1
0.0009221
0.0003399
0.0001913
0.0001307
0.0001493
0.0002023
0.0003089
0.0001829
9.72e-05
5.812e-05
3.67e-05
4.251e-05
5.882e-05
0.0001786
0.0008083
0.00184
0.001612
0.0007956
0.0003436
0.0002587
0.000582
0.002269
0.009175
0.02235
0.02712
0.01238
0.00419
0.00215
0.001912
0.003191
0.005132
0.004542
0.00268
0.002224
0.00193
0.002535
0.003169
0.003865
0.003775
0.0004955
3.617e-05
2.21e-06
3.177e-07
1.984e-07
9.445e-07
1.475e-06
9.581e-07
4.758e-07
1.479e-07
8.439e-08
2.603e-07
7.89e-07
3.218e-06
5.776e-06
2.432e-06
7.652e-07
9.762e-07
4.766e-06
6.507e-05
0.000832
0.003015
0.006096
0.006502
0.009142
0.009204
0.008363
0.008136
0.009187
0.009303
0.01334
0.0179
0.0232
0.03215
0.05585
0.06703
0.09761
0.1255
0.1608
0.1566
0.1586
0.1689
0.1792
0.2655
0.2808
0.2674
0.3138
0.4712
0.5843
0.6958
0.7665
0.7802
0.7928
0.7635
0.6613
0.539
0.3887
0.3402
0.3394
0.3717
0.3629
0.482
0.5061
0.5049
0.374
0.208
0.1321
0.1321
0.1011
0.0862
0.05946
0.0358
0.02392
0.02684
0.02113
0.02465
0.02725
0.03501
0.03662
0.04077
0.03815
0.04022
0.04601
0.05469
0.06607
0.08021
0.09813
0.1231
0.1585
0.2084
0.2496
0.3104
0.395
0.4882
0.5801
0.6825
0.7552
0.8135
0.8464
0.8688
0.8912
0.9183
0.944
0.9638
0.9743
0.982
0.9875
0.9926
0.9954
0.9975
0.9983
0.9993
0.9996
0.9999
0.9999
1
1
1
1
1
1
0.0005499
0.0002288
0.0001704
0.0001779
0.0002811
0.0003813
0.0002685
0.0001008
4.141e-05
2.964e-05
2.831e-05
5.86e-05
0.0001663
0.0007071
0.001683
0.002283
0.0007592
0.0001154
2.858e-05
2.159e-05
7.546e-05
0.0004604
0.004
0.01541
0.02609
0.01513
0.008371
0.004833
0.003847
0.005441
0.006438
0.003673
0.001323
0.0005817
0.0004555
0.0006078
0.001263
0.00259
0.003096
0.0006563
6.479e-05
4.631e-06
8.716e-07
7.116e-07
2.549e-06
3.967e-06
2.954e-06
1.169e-06
2.703e-07
1.274e-07
3.598e-07
1.577e-06
1.166e-05
2.605e-05
1.042e-05
2.393e-06
2.474e-06
1.137e-05
0.0001533
0.002225
0.007578
0.01093
0.009827
0.01264
0.01488
0.01636
0.01689
0.01818
0.02114
0.03369
0.05916
0.1127
0.1921
0.3111
0.3375
0.408
0.4214
0.4758
0.4823
0.5408
0.6086
0.7124
0.8216
0.8469
0.8703
0.8952
0.9365
0.9604
0.9767
0.9831
0.9864
0.9877
0.9852
0.9736
0.9493
0.9002
0.8772
0.8741
0.8769
0.8538
0.8415
0.8156
0.8132
0.7852
0.7185
0.6442
0.6343
0.5415
0.4308
0.2232
0.1627
0.122
0.1554
0.1259
0.1219
0.1252
0.179
0.2033
0.2418
0.2243
0.2332
0.2631
0.3147
0.3935
0.484
0.5632
0.635
0.6941
0.7468
0.7707
0.798
0.8267
0.861
0.8912
0.9233
0.9437
0.9594
0.9685
0.9745
0.98
0.9862
0.9913
0.9949
0.9967
0.9978
0.9985
0.9991
0.9994
0.9996
0.9997
0.9999
0.9999
1
1
1
1
1
1
1
1
0.0003473
0.0001945
0.0001954
0.0002327
0.0002676
0.0003104
0.0001471
6.379e-05
3.558e-05
5.996e-05
7.642e-05
0.0002596
0.000864
0.001989
0.00256
0.002288
0.0004684
5.29e-05
1.042e-05
6.273e-06
2.527e-05
0.0003211
0.004693
0.017
0.0251
0.01371
0.009277
0.006489
0.006383
0.008543
0.007912
0.003458
0.0008442
0.0003079
0.0001785
0.0002342
0.0005739
0.001188
0.001344
0.0004098
5.716e-05
8.728e-06
2.594e-06
2.344e-06
4.197e-06
4.299e-06
2.893e-06
8.474e-07
1.605e-07
8.214e-08
2.34e-07
1.999e-06
3.276e-05
0.0001589
0.0001
2.423e-05
1.707e-05
5.651e-05
0.0004827
0.004433
0.01181
0.01452
0.01207
0.01424
0.01809
0.0247
0.03221
0.04684
0.07951
0.1527
0.3643
0.5735
0.6996
0.7582
0.7541
0.7661
0.7717
0.8038
0.8547
0.909
0.9439
0.9632
0.9788
0.9861
0.9926
0.9963
0.9983
0.999
0.9994
0.9996
0.9996
0.9996
0.9994
0.9984
0.996
0.9907
0.9875
0.9874
0.9886
0.9864
0.9832
0.9776
0.972
0.9628
0.9458
0.9224
0.9043
0.8596
0.7801
0.604
0.363
0.2134
0.2596
0.2961
0.4028
0.4709
0.584
0.6569
0.7025
0.7122
0.7363
0.7663
0.7978
0.8288
0.859
0.8854
0.9084
0.9267
0.9428
0.9508
0.9587
0.965
0.9732
0.9803
0.9872
0.9914
0.9944
0.9961
0.997
0.9978
0.9984
0.9989
0.9993
0.9995
0.9997
0.9998
0.9998
0.9999
0.9999
0.9999
1
1
1
1
1
1
1
1
1
1
0.0003571
0.0002936
0.0002937
0.0003174
0.0002862
0.0002729
0.0001114
6.454e-05
7.049e-05
0.0001227
0.0002261
0.0007826
0.001763
0.002432
0.002798
0.001868
0.0005338
6.986e-05
1.39e-05
6.54e-06
2.243e-05
0.0002449
0.003567
0.01293
0.02302
0.01728
0.0167
0.01497
0.01549
0.01688
0.01292
0.005533
0.001785
0.0006829
0.0003386
0.0003484
0.000721
0.001194
0.001205
0.000554
0.0001656
4.061e-05
1.943e-05
1.445e-05
1.112e-05
9.81e-06
5.447e-06
2.795e-06
9.455e-07
7.814e-07
1.705e-06
8.568e-06
6.824e-05
0.0002265
0.0001965
9.584e-05
0.0001182
0.0003536
0.00259
0.01246
0.02136
0.02196
0.01971
0.02592
0.04117
0.06469
0.09295
0.1641
0.3468
0.6052
0.7723
0.8536
0.8897
0.9044
0.9236
0.945
0.9605
0.979
0.9892
0.9933
0.9964
0.9979
0.9989
0.9994
0.9997
0.9999
0.9999
1
1
1
1
1
0.9999
0.9998
0.9995
0.999
0.9985
0.9985
0.9985
0.9982
0.9978
0.9972
0.9965
0.9953
0.9932
0.9896
0.985
0.9757
0.9555
0.9008
0.811
0.6909
0.6386
0.6712
0.7519
0.8033
0.8603
0.8954
0.9101
0.9185
0.9278
0.9365
0.9488
0.9612
0.9718
0.9797
0.9852
0.9885
0.9912
0.9926
0.9942
0.9955
0.9966
0.9976
0.9984
0.9989
0.9992
0.9995
0.9996
0.9997
0.9997
0.9998
0.9999
0.9999
0.9999
0.9999
0.9999
1
1
1
1
1
1
1
1
1
1
1
1
0.9999
0.0006519
0.0006691
0.000713
0.0005303
0.0003676
0.0002791
0.000164
0.0001575
0.0003701
0.0005105
0.0008261
0.001475
0.001972
0.001739
0.001841
0.001569
0.001035
0.0001986
4.845e-05
1.784e-05
4.383e-05
0.0003082
0.003046
0.008568
0.01323
0.01271
0.01644
0.02038
0.02346
0.02435
0.01916
0.01132
0.005739
0.002913
0.001414
0.001151
0.001519
0.001998
0.002079
0.001592
0.0007888
0.0003276
0.0002127
0.0001568
8.011e-05
7.245e-05
5.06e-05
3.334e-05
1.405e-05
1.043e-05
1.095e-05
2.681e-05
8.637e-05
0.0002048
0.0002421
0.0002946
0.0007841
0.003516
0.01595
0.03948
0.04614
0.04429
0.04943
0.07595
0.1384
0.2419
0.3775
0.5904
0.7473
0.8456
0.9057
0.9462
0.9619
0.9694
0.9821
0.991
0.9954
0.9984
0.9993
0.9995
0.9997
0.9997
0.9998
0.9999
1
1
1
1
1
1
1
1
1
0.9999
0.9998
0.9998
0.9998
0.9998
0.9997
0.9997
0.9997
0.9996
0.9996
0.9994
0.999
0.9984
0.9976
0.9966
0.9941
0.9865
0.971
0.9431
0.9229
0.9339
0.9517
0.9638
0.9733
0.9785
0.9798
0.983
0.9862
0.9892
0.992
0.9942
0.9958
0.997
0.9977
0.9982
0.9987
0.9989
0.9992
0.9994
0.9995
0.9996
0.9997
0.9998
0.9998
0.9999
0.9999
0.9999
0.9999
0.9999
0.9999
1
1
1
1
1
1
1
1
1
1
1
1
1
1
1
0.9999
0.9999
0.001758
0.001867
0.001953
0.0007917
0.0004742
0.0002954
0.000332
0.0006699
0.002075
0.001705
0.001917
0.001095
0.001158
0.000757
0.0009501
0.0006644
0.0003057
4.085e-05
8.089e-06
3.069e-06
7.67e-06
5.532e-05
0.00061
0.001861
0.004131
0.005237
0.007423
0.01162
0.01583
0.01655
0.01433
0.0109
0.008966
0.006864
0.004567
0.003456
0.004001
0.004638
0.005426
0.006153
0.003482
0.002035
0.001358
0.001175
0.0006567
0.0007692
0.00063
0.0005009
0.0002639
0.0002226
0.000164
0.0001874
0.000334
0.0007012
0.001241
0.002191
0.006095
0.01721
0.04296
0.07357
0.09786
0.1037
0.1366
0.2306
0.4407
0.6127
0.7319
0.8426
0.9079
0.9438
0.9635
0.9787
0.9858
0.9904
0.9947
0.9978
0.9993
0.9998
0.9999
0.9999
0.9999
0.9999
0.9999
0.9999
1
1
1
1
1
1
1
1
0.9999
0.9999
0.9999
0.9999
0.9999
0.9999
0.9999
0.9999
0.9999
0.9999
0.9999
0.9999
0.9998
0.9998
0.9997
0.9995
0.9992
0.9982
0.9966
0.9935
0.9895
0.9892
0.991
0.9925
0.994
0.9949
0.9953
0.9963
0.9972
0.9979
0.9985
0.9989
0.9992
0.9994
0.9996
0.9996
0.9997
0.9998
0.9998
0.9999
0.9999
0.9999
0.9999
0.9999
0.9999
0.9999
1
1
1
1
1
1
1
1
1
1
1
1
1
1
0.9999
1
1
1
1
1
0.9999
0.9999
0.002969
0.003536
0.004479
0.001528
0.000664
0.00037
0.0006401
0.002133
0.00673
0.004242
0.003082
0.001082
0.0005999
0.0005045
0.0004274
0.0001189
3.799e-05
4.073e-06
7.362e-07
3.162e-07
1.085e-06
1.442e-05
0.0002301
0.001078
0.003236
0.003629
0.006298
0.009872
0.01432
0.01473
0.01361
0.01186
0.01218
0.01272
0.01094
0.009876
0.01125
0.01206
0.01384
0.01721
0.01073
0.006719
0.004525
0.004515
0.002819
0.002751
0.002399
0.002347
0.00214
0.002335
0.002057
0.002116
0.002917
0.004088
0.006275
0.01112
0.02231
0.05066
0.1107
0.1811
0.2675
0.3319
0.4066
0.495
0.6527
0.7817
0.879
0.9391
0.9657
0.9786
0.9852
0.9912
0.9947
0.9968
0.9979
0.999
0.9996
0.9999
0.9999
0.9999
0.9998
0.9998
0.9998
0.9999
0.9999
1
1
1
1
1
0.9999
0.9999
0.9998
0.9997
0.9997
0.9998
0.9998
0.9998
0.9999
0.9999
0.9999
0.9999
0.9999
0.9999
0.9999
0.9999
0.9999
0.9998
0.9998
0.9996
0.9993
0.9989
0.9986
0.9986
0.9988
0.9988
0.9988
0.9989
0.999
0.9992
0.9994
0.9996
0.9997
0.9998
0.9998
0.9998
0.9999
0.9999
0.9999
0.9999
0.9999
0.9999
1
1
1
1
1
1
1
1
1
1
1
1
1
1
1
1
1
1
1
1
1
1
1
1
1
1
1
1
0.003136
0.00445
0.007315
0.003097
0.001178
0.0007652
0.001859
0.00577
0.01254
0.006932
0.003238
0.001309
0.00074
0.0006047
0.0002064
3.194e-05
6.431e-06
7.844e-07
2.241e-07
1.493e-07
9.085e-07
1.354e-05
0.0002023
0.001104
0.004085
0.004153
0.006262
0.009412
0.01247
0.01183
0.01122
0.009778
0.01197
0.01429
0.01645
0.01743
0.0212
0.02076
0.02231
0.02509
0.01756
0.01347
0.01068
0.01031
0.006122
0.004841
0.003369
0.003397
0.004656
0.007509
0.008861
0.008978
0.01145
0.01498
0.02689
0.04503
0.0799
0.1424
0.2793
0.4586
0.5946
0.6637
0.7416
0.8131
0.8957
0.9505
0.979
0.9896
0.9932
0.9941
0.9941
0.9951
0.9966
0.9977
0.9983
0.9989
0.9993
0.9996
0.9996
0.9994
0.9992
0.9993
0.9996
0.9997
0.9998
0.9998
0.9998
0.9998
0.9998
0.9996
0.9993
0.9991
0.9989
0.9989
0.9991
0.9993
0.9994
0.9995
0.9996
0.9996
0.9996
0.9997
0.9997
0.9998
0.9998
0.9999
0.9998
0.9998
0.9998
0.9998
0.9998
0.9998
0.9998
0.9998
0.9998
0.9998
0.9998
0.9998
0.9998
0.9998
0.9998
0.9999
0.9999
0.9999
0.9999
0.9999
0.9999
0.9999
1
1
1
1
1
1
1
1
1
1
1
1
1
1
1
1
1
1
1
1
1
1
1
1
1
1
1
1
1
1
1
1
0.002164
0.003921
0.007946
0.003735
0.001369
0.001261
0.003433
0.01471
0.02239
0.01123
0.003594
0.001346
0.0006879
0.0005716
8.257e-05
1.079e-05
2.748e-06
7.224e-07
3.479e-07
3.73e-07
2.941e-06
3.964e-05
0.0006362
0.00311
0.008777
0.006651
0.008134
0.009469
0.01135
0.01134
0.01156
0.01132
0.016
0.01952
0.01988
0.02021
0.02138
0.01612
0.01266
0.01259
0.01165
0.0133
0.01725
0.01977
0.01292
0.007867
0.003923
0.003307
0.004284
0.007786
0.0122
0.01715
0.02987
0.05237
0.09001
0.1357
0.2137
0.3264
0.5138
0.666
0.7754
0.8355
0.8926
0.9352
0.9664
0.9845
0.9934
0.9962
0.9968
0.9964
0.9955
0.9951
0.996
0.9969
0.9971
0.9972
0.9978
0.9976
0.9969
0.996
0.9951
0.9956
0.9973
0.9979
0.9983
0.9984
0.9981
0.9977
0.997
0.9952
0.9934
0.9935
0.9941
0.9946
0.9955
0.9963
0.9967
0.9972
0.9977
0.9981
0.9984
0.9986
0.9991
0.9993
0.9995
0.9997
0.9997
0.9997
0.9998
0.9998
0.9998
0.9998
0.9998
0.9998
0.9998
0.9999
0.9999
0.9999
0.9999
0.9999
0.9999
0.9999
0.9999
0.9999
0.9999
0.9999
0.9999
1
1
1
1
1
1
1
1
1
1
1
1
1
1
1
1
1
1
1
1
1
1
1
1
1
1
1
1
1
1
1
1
1
0.002659
0.00484
0.0088
0.004516
0.001269
0.001325
0.004144
0.01699
0.02024
0.008747
0.002847
0.001145
0.0004563
0.0003492
5.162e-05
8.549e-06
4.709e-06
3.59e-06
2.979e-06
4.857e-06
3.301e-05
0.0002859
0.002752
0.01021
0.02217
0.01517
0.01578
0.01391
0.01283
0.01131
0.01141
0.01328
0.02166
0.02849
0.02672
0.02464
0.02251
0.0155
0.01068
0.008887
0.007328
0.008387
0.01102
0.01503
0.01369
0.01181
0.007698
0.006477
0.006785
0.01156
0.02003
0.03417
0.06481
0.1189
0.1995
0.2968
0.42
0.54
0.6773
0.7853
0.8652
0.9215
0.957
0.9769
0.9878
0.9935
0.9966
0.9975
0.9975
0.9965
0.9948
0.992
0.9917
0.9923
0.9924
0.9918
0.9912
0.9877
0.982
0.9769
0.9762
0.9797
0.9858
0.9876
0.988
0.9873
0.9856
0.9828
0.9776
0.9701
0.9637
0.9634
0.9658
0.9686
0.9734
0.9781
0.9811
0.9846
0.9878
0.9899
0.9917
0.9933
0.9956
0.997
0.9982
0.9988
0.9989
0.999
0.9993
0.9996
0.9996
0.9996
0.9996
0.9996
0.9997
0.9998
0.9999
0.9999
0.9999
0.9999
0.9999
0.9999
0.9999
0.9999
0.9999
0.9999
0.9999
1
1
1
1
1
1
1
1
1
1
1
1
1
1
1
1
1
1
1
1
1
1
1
1
1
1
1
1
1
1
1
1
1
0.004136
0.007284
0.01246
0.006814
0.001809
0.001854
0.004004
0.0125
0.01346
0.006273
0.001942
0.001025
0.0005532
0.000396
8.45e-05
2.598e-05
2.878e-05
4.886e-05
6.22e-05
0.0001062
0.0004483
0.001858
0.007544
0.0175
0.02789
0.02006
0.02056
0.01703
0.0142
0.01132
0.01288
0.01836
0.03279
0.04737
0.04146
0.03321
0.02276
0.01397
0.008389
0.00614
0.004529
0.005305
0.007501
0.01275
0.01924
0.02466
0.02117
0.02007
0.01959
0.02524
0.03463
0.06292
0.1202
0.2301
0.4146
0.5652
0.6771
0.764
0.8337
0.8845
0.9288
0.9597
0.978
0.9879
0.9927
0.9949
0.9966
0.997
0.9966
0.995
0.9916
0.985
0.9801
0.9755
0.9743
0.973
0.9674
0.9547
0.9367
0.9207
0.9236
0.9249
0.9221
0.9186
0.9017
0.8761
0.8616
0.8378
0.8175
0.8178
0.8136
0.8125
0.8167
0.8268
0.8489
0.8731
0.8942
0.9175
0.9362
0.9496
0.9619
0.9706
0.9798
0.9849
0.9895
0.9931
0.995
0.9957
0.9972
0.9984
0.9989
0.999
0.9989
0.9987
0.9988
0.9994
0.9997
0.9999
0.9999
0.9999
0.9999
0.9999
0.9999
0.9999
0.9999
1
1
1
1
1
1
1
1
1
1
1
1
1
1
1
1
1
1
1
1
1
1
1
1
1
1
1
1
1
1
1
1
1
1
0.9999
0.007574
0.01241
0.01908
0.008738
0.002453
0.002072
0.002671
0.007304
0.009676
0.005956
0.002645
0.002316
0.001595
0.001191
0.0003719
0.0001499
0.0001775
0.0003731
0.0006247
0.001457
0.003702
0.006345
0.009479
0.01086
0.01119
0.01105
0.0175
0.01494
0.01258
0.009164
0.008844
0.01106
0.02126
0.03609
0.03862
0.0347
0.02493
0.0165
0.01148
0.008667
0.006419
0.007103
0.009787
0.01682
0.03208
0.05401
0.05817
0.06337
0.06306
0.06823
0.09156
0.1473
0.2752
0.4883
0.6424
0.7423
0.8169
0.8722
0.9133
0.9439
0.9669
0.9806
0.9879
0.992
0.9933
0.9936
0.9947
0.9945
0.9936
0.9912
0.9855
0.9721
0.9555
0.9379
0.9332
0.9308
0.921
0.8987
0.8664
0.8329
0.8193
0.7929
0.7513
0.705
0.643
0.6019
0.5824
0.5642
0.5319
0.539
0.5402
0.5508
0.5496
0.5667
0.6058
0.6501
0.7058
0.7557
0.7923
0.8243
0.8619
0.8905
0.9228
0.9422
0.96
0.9732
0.9793
0.9821
0.9889
0.9934
0.996
0.9968
0.9968
0.9957
0.9961
0.998
0.9994
0.9998
0.9999
0.9999
0.9999
0.9999
0.9999
0.9999
1
1
1
1
1
1
1
1
1
1
1
1
1
1
1
1
1
0.9999
0.9999
0.9999
1
1
1
1
1
1
1
1
1
1
1
1
0.9999
0.9999
0.9999
0.9997
0.01029
0.01618
0.02367
0.0102
0.003072
0.001567
0.001253
0.003513
0.007229
0.007718
0.0048
0.006295
0.004671
0.003557
0.001654
0.000906
0.001072
0.002343
0.00344
0.00667
0.01105
0.01092
0.008979
0.007017
0.006593
0.007955
0.01771
0.01578
0.01393
0.01028
0.008783
0.008667
0.01441
0.02631
0.03719
0.04366
0.03753
0.02838
0.02197
0.01749
0.01385
0.01551
0.02067
0.0317
0.05417
0.08876
0.1087
0.1377
0.1742
0.2064
0.2677
0.3879
0.5379
0.6714
0.7752
0.8429
0.8942
0.9331
0.9597
0.9772
0.9859
0.9903
0.9919
0.9914
0.9896
0.9858
0.9835
0.9809
0.9803
0.9773
0.9701
0.9487
0.9181
0.8815
0.8623
0.8573
0.8384
0.7992
0.7404
0.669
0.6172
0.5478
0.4651
0.4103
0.3438
0.3206
0.2882
0.2784
0.235
0.2173
0.2036
0.2062
0.2168
0.2465
0.263
0.2643
0.2929
0.3379
0.3964
0.4524
0.5345
0.6049
0.6717
0.7325
0.807
0.8667
0.9039
0.9232
0.9472
0.9641
0.9777
0.9838
0.9862
0.9852
0.9894
0.9947
0.9984
0.9995
0.9998
0.9999
0.9999
0.9999
0.9999
0.9999
1
1
1
0.9999
1
1
1
1
1
1
1
0.9999
0.9999
0.9999
0.9999
1
1
1
1
1
1
1
1
1
1
1
1
1
1
1
0.9999
0.9999
0.9998
0.9995
0.9991
0.9979
0.01052
0.01571
0.02418
0.008861
0.002955
0.0008804
0.0005488
0.001702
0.006974
0.01351
0.01344
0.01834
0.01342
0.01021
0.005868
0.004282
0.003583
0.006502
0.007887
0.01312
0.01627
0.01233
0.008529
0.005821
0.007249
0.01079
0.02486
0.02352
0.01997
0.01368
0.01043
0.008038
0.01026
0.01778
0.03102
0.0491
0.05695
0.04637
0.03934
0.03468
0.03297
0.04094
0.05378
0.07087
0.09818
0.1372
0.1732
0.2261
0.3188
0.4202
0.5181
0.6124
0.7015
0.7741
0.8416
0.8931
0.9361
0.9661
0.9831
0.9919
0.9948
0.9952
0.9936
0.9902
0.9845
0.9779
0.9737
0.9681
0.9645
0.9586
0.9447
0.9074
0.8518
0.7814
0.7297
0.6979
0.6455
0.5686
0.4774
0.3729
0.3081
0.2473
0.2047
0.1799
0.1368
0.1063
0.08816
0.08315
0.07902
0.08126
0.07744
0.07421
0.08175
0.09519
0.1081
0.1099
0.1217
0.1359
0.1603
0.1793
0.2104
0.2439
0.2923
0.3719
0.4687
0.526
0.5944
0.6612
0.7417
0.8118
0.8742
0.9155
0.9436
0.9611
0.9827
0.9921
0.9972
0.9991
0.9997
0.9998
0.9999
0.9999
0.9999
0.9999
0.9999
0.9999
0.9999
0.9999
0.9999
0.9999
0.9999
0.9999
0.9999
0.9999
1
1
1
1
1
1
1
1
1
1
1
1
1
1
1
1
1
0.9999
0.9999
0.9998
0.9996
0.9993
0.9983
0.9964
0.9933
0.9847
0.007538
0.01101
0.01939
0.009251
0.005353
0.001311
0.0006881
0.001249
0.005226
0.008858
0.01248
0.01786
0.01725
0.01367
0.008999
0.008279
0.00687
0.01056
0.01483
0.01907
0.018
0.01334
0.009708
0.007153
0.007602
0.009805
0.01991
0.0216
0.02327
0.01954
0.01486
0.009446
0.009411
0.01277
0.02309
0.04176
0.05594
0.04619
0.04289
0.04506
0.05472
0.08057
0.1089
0.1341
0.1647
0.2103
0.2726
0.3709
0.4783
0.5727
0.6511
0.7151
0.7692
0.816
0.865
0.9117
0.9513
0.9781
0.9911
0.9962
0.9971
0.9963
0.9926
0.9849
0.9728
0.9614
0.9519
0.9365
0.9237
0.9044
0.8762
0.8133
0.7259
0.627
0.557
0.4966
0.4104
0.304
0.2281
0.1781
0.1403
0.1116
0.08446
0.06637
0.04485
0.03107
0.02379
0.02354
0.02474
0.02839
0.02614
0.02381
0.02879
0.0381
0.049
0.05522
0.06084
0.06436
0.0761
0.08601
0.09615
0.1067
0.1281
0.1593
0.207
0.2402
0.2981
0.373
0.4465
0.5219
0.5988
0.6943
0.8074
0.8979
0.9694
0.9898
0.9965
0.9988
0.9996
0.9998
0.9999
0.9999
0.9999
0.9999
0.9999
0.9999
1
1
1
1
1
1
1
1
1
1
1
1
1
1
1
1
1
1
1
1
1
1
0.9999
0.9999
0.9998
0.9994
0.9989
0.998
0.9966
0.9938
0.9867
0.9701
0.9425
0.894
0.005652
0.007617
0.01507
0.0103
0.009123
0.002006
0.001065
0.001092
0.003247
0.005462
0.009397
0.01299
0.01608
0.01497
0.00914
0.008019
0.007292
0.01185
0.02122
0.02534
0.02087
0.01577
0.01408
0.01289
0.01321
0.01315
0.01911
0.01998
0.02326
0.02307
0.01849
0.01062
0.01033
0.01166
0.0193
0.03287
0.04687
0.0422
0.04575
0.05369
0.07253
0.1088
0.1449
0.1731
0.2111
0.2664
0.3508
0.4652
0.5683
0.6529
0.7113
0.757
0.7997
0.8415
0.8871
0.9261
0.9579
0.9793
0.9909
0.9957
0.9962
0.9943
0.9874
0.9711
0.9464