/*--------------------------------*- C++ -*----------------------------------*\
| =========                 |                                                 |
| \\      /  F ield         | OpenFOAM: The Open Source CFD Toolbox           |
|  \\    /   O peration     | Version:  5.x                                   |
|   \\  /    A nd           | Web:      www.OpenFOAM.org                      |
|    \\/     M anipulation  |                                                 |
\*---------------------------------------------------------------------------*/
FoamFile
{
    version     2.0;
    format      ascii;
    class       volScalarField;
    location    "95";
    object      gamma;
}
// * * * * * * * * * * * * * * * * * * * * * * * * * * * * * * * * * * * * * //

dimensions      [0 0 0 0 0 0 0];

internalField   nonuniform List<scalar> 
80000
(
1
1
1
1
1
1
1
1
1
1
1
1
1
1
1
1
1
1
1
1
1
1
1
1
1
1
1
1
1
1
1
1
1
1
1
1
1
1
1
1
1
1
1
1
1
1
1
1
1
1
1
1
1
1
1
1
1
1
1
1
1
1
1
1
1
1
1
1
1
1
1
1
1
1
1
1
1
1
1
1
1
1
1
1
1
1
1
1
1
1
1
1
1
1
1
1
1
1
1
1
1
1
1
1
1
1
1
1
1
1
1
1
1
1
1
1
1
1
1
1
1
1
1
1
1
1
1
1
1
1
1
1
1
1
1
1
1
1
1
1
1
1
1
1
1
1
1
1
1
1
1
1
1
1
1
1
1
1
1
1
1
1
1
1
1
1
1
1
1
1
1
1
1
1
1
1
1
1
1
1
1
1
1
1
1
1
1
1
1
1
1
1
1
1
1
1
1
1
1
1
1
1
1
1
1
1
1
1
1
1
1
1
1
1
1
1
1
1
1
1
1
1
1
1
1
1
1
1
1
1
1
1
1
1
1
1
1
1
1
1
1
1
1
1
1
1
1
1
1
1
1
1
1
1
1
1
1
1
1
0.99998
0.9988
0.86822
0.0028268
1.1556e-05
3.8221e-07
4.9528e-08
3.5002e-09
2.3576e-10
2.9805e-11
1.1007e-11
2.1242e-11
1.5461e-10
1.6131e-09
1.2197e-08
5.4477e-08
9.2513e-08
9.3328e-08
9.6172e-08
1.8387e-07
4.7988e-07
1.6653e-06
3.4774e-06
5.8473e-06
7.0489e-06
3.9907e-06
1.6758e-06
4.9926e-07
2.379e-07
2.0131e-07
3.3279e-07
3.7405e-07
3.6502e-07
3.4675e-07
3.3053e-07
3.1584e-07
3.0641e-07
3.0204e-07
2.9951e-07
2.9899e-07
2.9519e-07
2.8919e-07
2.8134e-07
2.73e-07
2.6646e-07
2.6182e-07
2.585e-07
2.5718e-07
2.5502e-07
2.4775e-07
2.347e-07
2.1862e-07
2.1377e-07
2.5145e-07
4.2339e-07
6.7205e-07
2.9979e-07
8.0097e-08
1.4339e-08
4.836e-09
3.5346e-09
6.1358e-09
6.8933e-09
6.5683e-09
6.1543e-09
5.9007e-09
5.7557e-09
5.6279e-09
5.4961e-09
5.3635e-09
5.2345e-09
5.1102e-09
4.9903e-09
4.8745e-09
4.7624e-09
4.6537e-09
4.5484e-09
4.4463e-09
4.3473e-09
4.2513e-09
4.1582e-09
4.068e-09
3.9806e-09
3.896e-09
3.8142e-09
3.7351e-09
3.6587e-09
3.5851e-09
3.5142e-09
3.446e-09
3.3805e-09
3.3179e-09
3.2579e-09
3.2007e-09
3.1463e-09
3.0947e-09
3.0458e-09
2.9997e-09
2.9563e-09
2.9157e-09
2.8777e-09
2.8424e-09
2.8097e-09
2.7796e-09
2.752e-09
2.7268e-09
2.7041e-09
2.6836e-09
2.6653e-09
2.6491e-09
2.6349e-09
2.6226e-09
2.6121e-09
2.6032e-09
2.5958e-09
2.5898e-09
2.585e-09
2.5814e-09
2.5786e-09
2.5768e-09
2.5755e-09
2.5749e-09
2.5747e-09
2.5748e-09
2.5751e-09
2.5755e-09
2.5761e-09
2.5769e-09
2.5783e-09
2.5789e-09
2.5738e-09
2.5585e-09
2.5545e-09
2.6137e-09
2.7812e-09
2.8581e-09
2.1069e-09
1.5478e-09
1.9223e-09
2.5439e-09
4.6478e-09
1
1
1
1
1
1
1
1
1
1
1
1
1
1
1
1
1
1
1
1
1
1
1
1
1
1
1
1
1
1
1
1
1
1
1
1
1
1
1
1
1
1
1
1
1
1
1
1
1
1
1
1
1
1
1
1
1
1
1
1
1
1
1
1
1
1
1
1
1
1
1
1
1
1
1
1
1
1
1
1
1
1
1
1
1
1
1
1
1
1
1
1
1
1
1
1
1
1
1
1
1
1
1
1
1
1
1
1
1
1
1
1
1
1
1
1
1
1
1
1
1
1
1
1
1
1
1
1
1
1
1
1
1
1
1
1
1
1
1
1
1
1
1
1
1
1
1
1
1
1
1
1
1
1
1
1
1
1
1
1
1
1
1
1
1
1
1
1
1
1
1
1
1
1
1
1
1
1
1
1
1
1
1
1
1
1
1
1
1
1
1
1
1
1
1
1
1
1
1
1
1
1
1
1
1
1
1
1
1
1
1
1
1
1
1
1
1
1
1
1
1
1
1
1
1
1
1
1
1
1
1
1
1
1
1
1
1
1
1
1
1
1
1
1
1
1
1
1
1
1
1
1
1
1
1
1
1
1
1
0.99999
0.9998
0.99398
0.85497
0.094672
0.0060208
0.00067986
2.4217e-05
4.5033e-07
9.6759e-09
4.7681e-10
1.1127e-10
1.2624e-10
3.4191e-10
1.0612e-09
3.2355e-09
7.6291e-09
1.9266e-08
5.5633e-08
2.204e-07
9.173e-07
2.2088e-06
3.7164e-06
4.4642e-06
3.6297e-06
1.6388e-06
6.1742e-07
2.1273e-07
1.3682e-07
1.4327e-07
2.2108e-07
2.4246e-07
2.3457e-07
2.2126e-07
2.1069e-07
2.0294e-07
1.9852e-07
1.9645e-07
1.9538e-07
1.9261e-07
1.8866e-07
1.8401e-07
1.7876e-07
1.7365e-07
1.7005e-07
1.6736e-07
1.6574e-07
1.6394e-07
1.6126e-07
1.5512e-07
1.4631e-07
1.3813e-07
1.4283e-07
1.8628e-07
2.4681e-07
2.2908e-07
7.8466e-08
1.9397e-08
4.4052e-09
2.2724e-09
2.2085e-09
3.5573e-09
3.874e-09
3.6674e-09
3.4403e-09
3.3027e-09
3.2215e-09
3.1488e-09
3.0742e-09
2.9997e-09
2.9273e-09
2.8577e-09
2.7907e-09
2.7259e-09
2.6633e-09
2.6026e-09
2.5438e-09
2.4869e-09
2.4316e-09
2.378e-09
2.326e-09
2.2757e-09
2.2268e-09
2.1795e-09
2.1338e-09
2.0895e-09
2.0468e-09
2.0055e-09
1.9658e-09
1.9275e-09
1.8908e-09
1.8556e-09
1.8219e-09
1.7897e-09
1.759e-09
1.7299e-09
1.7023e-09
1.6761e-09
1.6516e-09
1.6285e-09
1.6069e-09
1.5867e-09
1.568e-09
1.5507e-09
1.5349e-09
1.5203e-09
1.5071e-09
1.4951e-09
1.4844e-09
1.4748e-09
1.4663e-09
1.4589e-09
1.4525e-09
1.4469e-09
1.4422e-09
1.4383e-09
1.4351e-09
1.4325e-09
1.4305e-09
1.4289e-09
1.4278e-09
1.427e-09
1.4265e-09
1.4262e-09
1.4261e-09
1.426e-09
1.4261e-09
1.4264e-09
1.4271e-09
1.4273e-09
1.4244e-09
1.4157e-09
1.4135e-09
1.4477e-09
1.5436e-09
1.5864e-09
1.156e-09
8.4267e-10
1.0628e-09
1.4044e-09
2.5439e-09
1
1
1
1
1
1
1
1
1
1
1
1
1
1
1
1
1
1
1
1
1
1
1
1
1
1
1
1
1
1
1
1
1
1
1
1
1
1
1
1
1
1
1
1
1
1
1
1
1
1
1
1
1
1
1
1
1
1
1
1
1
1
1
1
1
1
1
1
1
1
1
1
1
1
1
1
1
1
1
1
1
1
1
1
1
1
1
1
1
1
1
1
1
1
1
1
1
1
1
1
1
1
1
1
1
1
1
1
1
1
1
1
1
1
1
1
1
1
1
1
1
1
1
1
1
1
1
1
1
1
1
1
1
1
1
1
1
1
1
1
1
1
1
1
1
1
1
1
1
1
1
1
1
1
1
1
1
1
1
1
1
1
1
1
1
1
1
1
1
1
1
1
1
1
1
1
1
1
1
1
1
1
1
1
1
1
1
1
1
1
1
1
1
1
1
1
1
1
1
1
1
1
1
1
1
1
1
1
1
1
1
1
1
1
1
1
1
1
1
1
1
1
1
1
1
1
1
1
1
1
1
1
1
1
1
1
1
1
1
1
1
1
1
1
1
1
1
1
1
1
1
1
1
1
1
1
1
1
1
1
0.99999
0.99989
0.99897
0.99349
0.97258
0.90257
0.33148
0.0048439
4.3115e-05
3.8626e-07
1.2713e-08
1.6457e-09
5.5556e-10
3.0592e-10
3.8476e-10
8.3779e-10
3.7799e-09
2.5584e-08
2.18e-07
1.0607e-06
2.775e-06
3.9072e-06
3.2547e-06
1.8199e-06
6.8314e-07
2.2967e-07
1.2773e-07
1.1158e-07
1.357e-07
1.8873e-07
1.9957e-07
1.9016e-07
1.7909e-07
1.7123e-07
1.6628e-07
1.6368e-07
1.6246e-07
1.6004e-07
1.5666e-07
1.5268e-07
1.4842e-07
1.444e-07
1.4073e-07
1.3819e-07
1.3612e-07
1.3463e-07
1.3254e-07
1.2928e-07
1.2315e-07
1.1594e-07
1.1288e-07
1.2708e-07
1.9039e-07
1.9286e-07
1.124e-07
2.9752e-08
5.8888e-09
1.9642e-09
1.5995e-09
1.9427e-09
2.7992e-09
2.9226e-09
2.7504e-09
2.5903e-09
2.4941e-09
2.4338e-09
2.3786e-09
2.3222e-09
2.2662e-09
2.212e-09
2.16e-09
2.1099e-09
2.0616e-09
2.0149e-09
1.9697e-09
1.9259e-09
1.8834e-09
1.8422e-09
1.8022e-09
1.7635e-09
1.7258e-09
1.6894e-09
1.654e-09
1.6198e-09
1.5867e-09
1.5547e-09
1.5237e-09
1.4939e-09
1.4652e-09
1.4375e-09
1.411e-09
1.3855e-09
1.3612e-09
1.338e-09
1.3159e-09
1.295e-09
1.2751e-09
1.2564e-09
1.2387e-09
1.2222e-09
1.2067e-09
1.1923e-09
1.1789e-09
1.1665e-09
1.1552e-09
1.1448e-09
1.1353e-09
1.1268e-09
1.1191e-09
1.1122e-09
1.1061e-09
1.1008e-09
1.0961e-09
1.092e-09
1.0886e-09
1.0857e-09
1.0832e-09
1.0812e-09
1.0796e-09
1.0783e-09
1.0773e-09
1.0765e-09
1.076e-09
1.0756e-09
1.0753e-09
1.0752e-09
1.0752e-09
1.0756e-09
1.0757e-09
1.0734e-09
1.0667e-09
1.0651e-09
1.0914e-09
1.1648e-09
1.1977e-09
8.6849e-10
6.2916e-10
7.9927e-10
1.0628e-09
1.9223e-09
1
1
1
1
1
1
1
1
1
1
1
1
1
1
1
1
1
1
1
1
1
1
1
1
1
1
1
1
1
1
1
1
1
1
1
1
1
1
1
1
1
1
1
1
1
1
1
1
1
1
1
1
1
1
1
1
1
1
1
1
1
1
1
1
1
1
1
1
1
1
1
1
1
1
1
1
1
1
1
1
1
1
1
1
1
1
1
1
1
1
1
1
1
1
1
1
1
1
1
1
1
1
1
1
1
1
1
1
1
1
1
1
1
1
1
1
1
1
1
1
1
1
1
1
1
1
1
1
1
1
1
1
1
1
1
1
1
1
1
1
1
1
1
1
1
1
1
1
1
1
1
1
1
1
1
1
1
1
1
1
1
1
1
1
1
1
1
1
1
1
1
1
1
1
1
1
1
1
1
1
1
1
1
1
1
1
1
1
1
1
1
1
1
1
1
1
1
1
1
1
1
1
1
1
1
1
1
1
1
1
1
1
1
1
1
1
1
1
1
1
1
1
1
1
1
1
1
1
1
1
1
1
1
1
1
1
1
1
1
1
1
1
1
1
1
1
1
1
1
1
1
1
1
1
1
1
1
1
1
1
1
1
1
1
0.99999
0.99996
0.99973
0.99559
0.86055
0.0079046
2.703e-05
2.488e-07
6.7644e-09
4.8465e-10
1.4034e-10
1.3315e-10
5.5365e-10
6.3556e-09
7.6924e-08
6.1325e-07
2.016e-06
2.4932e-06
1.5637e-06
6.4089e-07
2.0894e-07
1.1056e-07
9.2122e-08
1.0721e-07
1.4329e-07
1.7142e-07
1.7071e-07
1.5986e-07
1.5058e-07
1.4476e-07
1.4188e-07
1.4086e-07
1.3927e-07
1.3615e-07
1.3238e-07
1.2825e-07
1.2453e-07
1.2158e-07
1.1898e-07
1.1721e-07
1.1571e-07
1.1377e-07
1.1138e-07
1.0744e-07
1.0107e-07
9.5276e-08
9.7875e-08
1.2588e-07
1.6982e-07
1.062e-07
3.4317e-08
6.3254e-09
1.7881e-09
9.9688e-10
1.3124e-09
1.9005e-09
2.3322e-09
2.3e-09
2.1524e-09
2.0413e-09
1.9743e-09
1.9278e-09
1.8836e-09
1.8387e-09
1.7946e-09
1.7522e-09
1.7114e-09
1.6723e-09
1.6346e-09
1.5981e-09
1.5628e-09
1.5287e-09
1.4955e-09
1.4634e-09
1.4323e-09
1.402e-09
1.3727e-09
1.3442e-09
1.3166e-09
1.2898e-09
1.2639e-09
1.2388e-09
1.2145e-09
1.1911e-09
1.1685e-09
1.1467e-09
1.1258e-09
1.1056e-09
1.0864e-09
1.068e-09
1.0504e-09
1.0337e-09
1.0178e-09
1.0027e-09
9.8854e-10
9.7517e-10
9.6262e-10
9.5088e-10
9.3993e-10
9.2977e-10
9.2037e-10
9.117e-10
9.0376e-10
8.965e-10
8.899e-10
8.8394e-10
8.7858e-10
8.7379e-10
8.6953e-10
8.6576e-10
8.6247e-10
8.596e-10
8.5712e-10
8.55e-10
8.5321e-10
8.517e-10
8.5045e-10
8.4944e-10
8.4861e-10
8.4796e-10
8.4745e-10
8.4708e-10
8.4694e-10
8.4709e-10
8.4705e-10
8.4514e-10
8.3976e-10
8.3853e-10
8.5961e-10
9.183e-10
9.4427e-10
6.8137e-10
4.9134e-10
6.2916e-10
8.4267e-10
1.5478e-09
1
1
1
1
1
1
1
1
1
1
1
1
1
1
1
1
1
1
1
1
1
1
1
1
1
1
1
1
1
1
1
1
1
1
1
1
1
1
1
1
1
1
1
1
1
1
1
1
1
1
1
1
1
1
1
1
1
1
1
1
1
1
1
1
1
1
1
1
1
1
1
1
1
1
1
1
1
1
1
1
1
1
1
1
1
1
1
1
1
1
1
1
1
1
1
1
1
1
1
1
1
1
1
1
1
1
1
1
1
1
1
1
1
1
1
1
1
1
1
1
1
1
1
1
1
1
1
1
1
1
1
1
1
1
1
1
1
1
1
1
1
1
1
1
1
1
1
1
1
1
1
1
1
1
1
1
1
1
1
1
1
1
1
1
1
1
1
1
1
1
1
1
1
1
1
1
1
1
1
1
1
1
1
1
1
1
1
1
1
1
1
1
1
1
1
1
1
1
1
1
1
1
1
1
1
1
1
1
1
1
1
1
1
1
1
1
1
1
1
1
1
1
1
1
1
1
1
1
1
1
1
1
1
1
1
1
1
1
1
1
1
1
1
1
1
1
1
1
1
1
1
1
1
1
1
1
1
1
1
1
1
1
1
1
1
1
1
1
0.99994
0.99699
0.86435
0.0095748
2.9995e-05
2.0804e-07
5.1387e-09
5.0316e-10
5.3894e-10
2.1274e-09
1.5571e-08
9.148e-08
2.9008e-07
4.2013e-07
3.5972e-07
1.7522e-07
1.1198e-07
1.0325e-07
1.2713e-07
1.7919e-07
2.3153e-07
2.3876e-07
2.2483e-07
2.073e-07
1.9568e-07
1.8929e-07
1.8705e-07
1.8487e-07
1.8191e-07
1.7638e-07
1.7069e-07
1.6567e-07
1.6188e-07
1.5876e-07
1.5603e-07
1.5377e-07
1.5088e-07
1.4779e-07
1.4424e-07
1.3812e-07
1.2909e-07
1.2273e-07
1.3478e-07
1.9991e-07
2.0253e-07
7.8488e-08
1.68e-08
3.0423e-09
1.1296e-09
1.156e-09
2.169e-09
3.1789e-09
3.3327e-09
3.1246e-09
2.9203e-09
2.7935e-09
2.7146e-09
2.6523e-09
2.5911e-09
2.5299e-09
2.4701e-09
2.4127e-09
2.3576e-09
2.3047e-09
2.2536e-09
2.2043e-09
2.1567e-09
2.1106e-09
2.0659e-09
2.0225e-09
1.9805e-09
1.9397e-09
1.9001e-09
1.8617e-09
1.8244e-09
1.7882e-09
1.7531e-09
1.7191e-09
1.6862e-09
1.6544e-09
1.6237e-09
1.594e-09
1.5655e-09
1.538e-09
1.5117e-09
1.4864e-09
1.4623e-09
1.4393e-09
1.4174e-09
1.3965e-09
1.3768e-09
1.3582e-09
1.3406e-09
1.3241e-09
1.3087e-09
1.2943e-09
1.2809e-09
1.2684e-09
1.257e-09
1.2464e-09
1.2367e-09
1.2278e-09
1.2198e-09
1.2125e-09
1.2059e-09
1.2e-09
1.1948e-09
1.1901e-09
1.186e-09
1.1824e-09
1.1792e-09
1.1765e-09
1.1742e-09
1.1722e-09
1.1706e-09
1.1692e-09
1.1681e-09
1.1672e-09
1.1667e-09
1.1666e-09
1.1664e-09
1.1637e-09
1.1563e-09
1.1545e-09
1.1831e-09
1.2627e-09
1.2981e-09
9.4125e-10
6.8137e-10
8.6849e-10
1.156e-09
2.1069e-09
1
1
1
1
1
1
1
1
1
1
1
1
1
1
1
1
1
1
1
1
1
1
1
1
1
1
1
1
1
1
1
1
1
1
1
1
1
1
1
1
1
1
1
1
1
1
1
1
1
1
1
1
1
1
1
1
1
1
1
1
1
1
1
1
1
1
1
1
1
1
1
1
1
1
1
1
1
1
1
1
1
1
1
1
1
1
1
1
1
1
1
1
1
1
1
1
1
1
1
1
1
1
1
1
1
1
1
1
1
1
1
1
1
1
1
1
1
1
1
1
1
1
1
1
1
1
1
1
1
1
1
1
1
1
1
1
1
1
1
1
1
1
1
1
1
1
1
1
1
1
1
1
1
1
1
1
1
1
1
1
1
1
1
1
1
1
1
1
1
1
1
1
1
1
1
1
1
1
1
1
1
1
1
1
1
1
1
1
1
1
1
1
1
1
1
1
1
1
1
1
1
1
1
1
1
1
1
1
1
1
1
1
1
1
1
1
1
1
1
1
1
1
1
1
1
1
1
1
1
1
1
1
1
1
1
1
1
1
1
1
1
1
1
1
1
1
1
1
1
1
1
1
1
1
1
1
1
1
1
1
1
1
1
1
1
1
1
1
1
1
0.99994
0.99758
0.86497
0.0066616
1.8223e-05
1.3835e-07
1.0129e-08
3.591e-09
4.6306e-09
7.2989e-09
1.2373e-08
1.7743e-08
2.3723e-08
3.2745e-08
5.9608e-08
1.2341e-07
2.2482e-07
3.2557e-07
3.4715e-07
3.2792e-07
2.9946e-07
2.7398e-07
2.5929e-07
2.5146e-07
2.4744e-07
2.4301e-07
2.3783e-07
2.2901e-07
2.211e-07
2.1564e-07
2.1153e-07
2.0827e-07
2.0563e-07
2.0217e-07
1.976e-07
1.9325e-07
1.8845e-07
1.7965e-07
1.6733e-07
1.6098e-07
1.8744e-07
3.127e-07
2.1236e-07
5.5772e-08
9.1198e-09
2.4059e-09
1.2587e-09
2.2697e-09
4.3811e-09
5.0812e-09
4.7728e-09
4.3327e-09
4.0499e-09
3.8918e-09
3.7862e-09
3.695e-09
3.6063e-09
3.5198e-09
3.4367e-09
3.3571e-09
3.2806e-09
3.2069e-09
3.1358e-09
3.0671e-09
3.0007e-09
2.9366e-09
2.8744e-09
2.8143e-09
2.7559e-09
2.6994e-09
2.6445e-09
2.5912e-09
2.5395e-09
2.4894e-09
2.4408e-09
2.3937e-09
2.3481e-09
2.3039e-09
2.2613e-09
2.2201e-09
2.1805e-09
2.1423e-09
2.1056e-09
2.0704e-09
2.0367e-09
2.0045e-09
1.9738e-09
1.9445e-09
1.9168e-09
1.8905e-09
1.8656e-09
1.8422e-09
1.8202e-09
1.7996e-09
1.7804e-09
1.7624e-09
1.7457e-09
1.7303e-09
1.716e-09
1.7029e-09
1.6909e-09
1.6799e-09
1.6699e-09
1.6608e-09
1.6527e-09
1.6453e-09
1.6387e-09
1.6328e-09
1.6276e-09
1.623e-09
1.6191e-09
1.6156e-09
1.6126e-09
1.6101e-09
1.608e-09
1.6063e-09
1.6052e-09
1.6047e-09
1.6041e-09
1.6001e-09
1.5899e-09
1.5873e-09
1.626e-09
1.7337e-09
1.7816e-09
1.2981e-09
9.4427e-10
1.1977e-09
1.5865e-09
2.8581e-09
1
1
1
1
1
1
1
1
1
1
1
1
1
1
1
1
1
1
1
1
1
1
1
1
1
1
1
1
1
1
1
1
1
1
1
1
1
1
1
1
1
1
1
1
1
1
1
1
1
1
1
1
1
1
1
1
1
1
1
1
1
1
1
1
1
1
1
1
1
1
1
1
1
1
1
1
1
1
1
1
1
1
1
1
1
1
1
1
1
1
1
1
1
1
1
1
1
1
1
1
1
1
1
1
1
1
1
1
1
1
1
1
1
1
1
1
1
1
1
1
1
1
1
1
1
1
1
1
1
1
1
1
1
1
1
1
1
1
1
1
1
1
1
1
1
1
1
1
1
1
1
1
1
1
1
1
1
1
1
1
1
1
1
1
1
1
1
1
1
1
1
1
1
1
1
1
1
1
1
1
1
1
1
1
1
1
1
1
1
1
1
1
1
1
1
1
1
1
1
1
1
1
1
1
1
1
1
1
1
1
1
1
1
1
1
1
1
1
1
1
1
1
1
1
1
1
1
1
1
1
1
1
1
1
1
1
1
1
1
1
1
1
1
1
1
1
1
1
1
1
1
1
1
1
1
1
1
1
1
1
1
1
1
1
1
1
1
1
1
1
1
1
0.9999
0.99454
0.69886
0.0016714
1.0178e-05
1.5995e-07
1.075e-08
1.5685e-09
6.7355e-10
4.3968e-10
8.8712e-10
2.7403e-09
1.245e-08
5.8087e-08
1.639e-07
2.7514e-07
3.2407e-07
3.2626e-07
3.0772e-07
2.8603e-07
2.7172e-07
2.6103e-07
2.5386e-07
2.4721e-07
2.4077e-07
2.3131e-07
2.2371e-07
2.1836e-07
2.1448e-07
2.1181e-07
2.0837e-07
2.0414e-07
1.9906e-07
1.9485e-07
1.9049e-07
1.8166e-07
1.6907e-07
1.6431e-07
1.9774e-07
3.4975e-07
1.5678e-07
3.6268e-08
5.8209e-09
1.811e-09
1.1642e-09
3.0566e-09
5.0661e-09
5.3953e-09
4.914e-09
4.4402e-09
4.1544e-09
3.982e-09
3.853e-09
3.7401e-09
3.6372e-09
3.5428e-09
3.4553e-09
3.3728e-09
3.2939e-09
3.2179e-09
3.1445e-09
3.0735e-09
3.0049e-09
2.9386e-09
2.8745e-09
2.8124e-09
2.7524e-09
2.6943e-09
2.6379e-09
2.5833e-09
2.5304e-09
2.4791e-09
2.4294e-09
2.3813e-09
2.3347e-09
2.2897e-09
2.2462e-09
2.2042e-09
2.1638e-09
2.1248e-09
2.0874e-09
2.0515e-09
2.0171e-09
1.9842e-09
1.9528e-09
1.9229e-09
1.8945e-09
1.8675e-09
1.842e-09
1.8179e-09
1.7952e-09
1.7739e-09
1.7539e-09
1.7352e-09
1.7178e-09
1.7016e-09
1.6866e-09
1.6727e-09
1.6599e-09
1.6481e-09
1.6374e-09
1.6275e-09
1.6185e-09
1.6104e-09
1.6031e-09
1.5964e-09
1.5905e-09
1.5853e-09
1.5806e-09
1.5765e-09
1.573e-09
1.5699e-09
1.5673e-09
1.5651e-09
1.5636e-09
1.5628e-09
1.5618e-09
1.5576e-09
1.5474e-09
1.5447e-09
1.5821e-09
1.687e-09
1.7337e-09
1.2627e-09
9.183e-10
1.1648e-09
1.5436e-09
2.7812e-09
1
1
1
1
1
1
1
1
1
1
1
1
1
1
1
1
1
1
1
1
1
1
1
1
1
1
1
1
1
1
1
1
1
1
1
1
1
1
1
1
1
1
1
1
1
1
1
1
1
1
1
1
1
1
1
1
1
1
1
1
1
1
1
1
1
1
1
1
1
1
1
1
1
1
1
1
1
1
1
1
1
1
1
1
1
1
1
1
1
1
1
1
1
1
1
1
1
1
1
1
1
1
1
1
1
1
1
1
1
1
1
1
1
1
1
1
1
1
1
1
1
1
1
1
1
1
1
1
1
1
1
1
1
1
1
1
1
1
1
1
1
1
1
1
1
1
1
1
1
1
1
1
1
1
1
1
1
1
1
1
1
1
1
1
1
1
1
1
1
1
1
1
1
1
1
1
1
1
1
1
1
1
1
1
1
1
1
1
1
1
1
1
1
1
1
1
1
1
1
1
1
1
1
1
1
1
1
1
1
1
1
1
1
1
1
1
1
1
1
1
1
1
1
1
1
1
1
1
1
1
1
1
1
1
1
1
1
1
1
1
1
1
1
1
1
1
1
1
1
1
1
1
1
1
1
1
1
1
1
1
1
1
1
1
1
1
1
1
1
1
1
1
1
0.99998
0.99961
0.97742
0.16146
0.00034358
1.7839e-06
1.739e-08
7.1586e-10
1.1283e-10
1.0168e-10
2.7671e-10
1.3742e-09
8.3945e-09
3.1599e-08
8.9095e-08
1.6769e-07
2.3832e-07
2.7407e-07
2.8152e-07
2.7633e-07
2.662e-07
2.5669e-07
2.474e-07
2.3899e-07
2.2955e-07
2.2216e-07
2.1685e-07
2.1295e-07
2.0954e-07
2.0523e-07
2.0059e-07
1.9571e-07
1.9222e-07
1.8867e-07
1.8023e-07
1.6812e-07
1.6406e-07
1.9674e-07
3.4374e-07
1.5064e-07
3.3558e-08
5.1097e-09
1.5105e-09
9.4085e-10
2.4739e-09
4.279e-09
4.8481e-09
4.6754e-09
4.3836e-09
4.1645e-09
3.9891e-09
3.8299e-09
3.6839e-09
3.5562e-09
3.4464e-09
3.351e-09
3.2652e-09
3.1856e-09
3.11e-09
3.0373e-09
2.967e-09
2.899e-09
2.8333e-09
2.7697e-09
2.7082e-09
2.6488e-09
2.5913e-09
2.5357e-09
2.4818e-09
2.4297e-09
2.3792e-09
2.3304e-09
2.2831e-09
2.2374e-09
2.1932e-09
2.1506e-09
2.1094e-09
2.0698e-09
2.0316e-09
1.9949e-09
1.9597e-09
1.926e-09
1.8937e-09
1.8628e-09
1.8334e-09
1.8054e-09
1.7788e-09
1.7536e-09
1.7298e-09
1.7073e-09
1.6861e-09
1.6661e-09
1.6474e-09
1.63e-09
1.6136e-09
1.5984e-09
1.5843e-09
1.5712e-09
1.5591e-09
1.548e-09
1.5377e-09
1.5283e-09
1.5198e-09
1.512e-09
1.5049e-09
1.4985e-09
1.4927e-09
1.4876e-09
1.4831e-09
1.479e-09
1.4755e-09
1.4725e-09
1.4699e-09
1.468e-09
1.4668e-09
1.4655e-09
1.4613e-09
1.4514e-09
1.4486e-09
1.4837e-09
1.5821e-09
1.6259e-09
1.1831e-09
8.5961e-10
1.0914e-09
1.4477e-09
2.6137e-09
1
1
1
1
1
1
1
1
1
1
1
1
1
1
1
1
1
1
1
1
1
1
1
1
1
1
1
1
1
1
1
1
1
1
1
1
1
1
1
1
1
1
1
1
1
1
1
1
1
1
1
1
1
1
1
1
1
1
1
1
1
1
1
1
1
1
1
1
1
1
1
1
1
1
1
1
1
1
1
1
1
1
1
1
1
1
1
1
1
1
1
1
1
1
1
1
1
1
1
1
1
1
1
1
1
1
1
1
1
1
1
1
1
1
1
1
1
1
1
1
1
1
1
1
1
1
1
1
1
1
1
1
1
1
1
1
1
1
1
1
1
1
1
1
1
1
1
1
1
1
1
1
1
1
1
1
1
1
1
1
1
1
1
1
1
1
1
1
1
1
1
1
1
1
1
1
1
1
1
1
1
1
1
1
1
1
1
1
1
1
1
1
1
1
1
1
1
1
1
1
1
1
1
1
1
1
1
1
1
1
1
1
1
1
1
1
1
1
1
1
1
1
1
1
1
1
1
1
1
1
1
1
1
1
1
1
1
1
1
1
1
1
1
1
1
1
1
1
1
1
1
1
1
1
1
1
1
1
1
1
1
1
1
1
1
1
1
1
1
1
1
1
1
1
1
0.99994
0.99868
0.94792
0.033893
4.9291e-05
1.2862e-07
1.9003e-09
2.216e-10
1.4994e-10
2.2373e-10
6.5495e-10
2.1377e-09
8.8146e-09
3.0415e-08
8.1641e-08
1.5735e-07
2.2182e-07
2.5841e-07
2.6852e-07
2.6552e-07
2.5685e-07
2.4776e-07
2.3792e-07
2.3e-07
2.2376e-07
2.1911e-07
2.1392e-07
2.0884e-07
2.0401e-07
1.9975e-07
1.9698e-07
1.937e-07
1.8569e-07
1.7407e-07
1.6934e-07
1.9606e-07
3.1623e-07
2.0119e-07
6.466e-08
1.0808e-08
2.5602e-09
1.0858e-09
1.5629e-09
2.4372e-09
3.4353e-09
3.9387e-09
4.1398e-09
4.1909e-09
4.1268e-09
3.9889e-09
3.8205e-09
3.6582e-09
3.5154e-09
3.3949e-09
3.2923e-09
3.2028e-09
3.1218e-09
3.0463e-09
2.9743e-09
2.9051e-09
2.8381e-09
2.7733e-09
2.7105e-09
2.6498e-09
2.5911e-09
2.5343e-09
2.4794e-09
2.4263e-09
2.3749e-09
2.3253e-09
2.2773e-09
2.2309e-09
2.186e-09
2.1428e-09
2.101e-09
2.0608e-09
2.0221e-09
1.9849e-09
1.9491e-09
1.9148e-09
1.882e-09
1.8506e-09
1.8207e-09
1.7921e-09
1.7649e-09
1.7391e-09
1.7147e-09
1.6915e-09
1.6696e-09
1.649e-09
1.6296e-09
1.6114e-09
1.5944e-09
1.5784e-09
1.5635e-09
1.5497e-09
1.5368e-09
1.5248e-09
1.5138e-09
1.5036e-09
1.4942e-09
1.4856e-09
1.4778e-09
1.4707e-09
1.4642e-09
1.4584e-09
1.4532e-09
1.4485e-09
1.4444e-09
1.4409e-09
1.4378e-09
1.4354e-09
1.4338e-09
1.4321e-09
1.4276e-09
1.4176e-09
1.4146e-09
1.4486e-09
1.5447e-09
1.5873e-09
1.1545e-09
8.3853e-10
1.0651e-09
1.4135e-09
2.5545e-09
1
1
1
1
1
1
1
1
1
1
1
1
1
1
1
1
1
1
1
1
1
1
1
1
1
1
1
1
1
1
1
1
1
1
1
1
1
1
1
1
1
1
1
1
1
1
1
1
1
1
1
1
1
1
1
1
1
1
1
1
1
1
1
1
1
1
1
1
1
1
1
1
1
1
1
1
1
1
1
1
1
1
1
1
1
1
1
1
1
1
1
1
1
1
1
1
1
1
1
1
1
1
1
1
1
1
1
1
1
1
1
1
1
1
1
1
1
1
1
1
1
1
1
1
1
1
1
1
1
1
1
1
1
1
1
1
1
1
1
1
1
1
1
1
1
1
1
1
1
1
1
1
1
1
1
1
1
1
1
1
1
1
1
1
1
1
1
1
1
1
1
1
1
1
1
1
1
1
1
1
1
1
1
1
1
1
1
1
1
1
1
1
1
1
1
1
1
1
1
1
1
1
1
1
1
1
1
1
1
1
1
1
1
1
1
1
1
1
1
1
1
1
1
1
1
1
1
1
1
1
1
1
1
1
1
1
1
1
1
1
1
1
1
1
1
1
1
1
1
1
1
1
1
1
1
1
1
1
1
1
1
1
1
1
1
1
1
1
1
1
1
1
1
1
1
1
1
0.99995
0.99844
0.90431
0.0049965
9.4284e-06
7.4438e-08
3.6943e-09
3.895e-10
1.7553e-10
1.8477e-10
4.9252e-10
1.9437e-09
8.9375e-09
3.3245e-08
8.5251e-08
1.5906e-07
2.1912e-07
2.5265e-07
2.6106e-07
2.5806e-07
2.5044e-07
2.4292e-07
2.3587e-07
2.2933e-07
2.2243e-07
2.167e-07
2.1158e-07
2.077e-07
2.0507e-07
2.0201e-07
1.9509e-07
1.8462e-07
1.7859e-07
1.9574e-07
2.7794e-07
2.5413e-07
1.3407e-07
3.8049e-08
9.012e-09
2.7646e-09
1.844e-09
1.7352e-09
2.0559e-09
2.3429e-09
3.1059e-09
3.6901e-09
4.0185e-09
4.1123e-09
4.0426e-09
3.8979e-09
3.7313e-09
3.5747e-09
3.4378e-09
3.3221e-09
3.2236e-09
3.1376e-09
3.0597e-09
2.9868e-09
2.9171e-09
2.8497e-09
2.7844e-09
2.721e-09
2.6597e-09
2.6003e-09
2.5429e-09
2.4875e-09
2.4339e-09
2.3821e-09
2.3321e-09
2.2838e-09
2.2371e-09
2.1921e-09
2.1487e-09
2.1068e-09
2.0665e-09
2.0278e-09
1.9905e-09
1.9548e-09
1.9206e-09
1.8878e-09
1.8565e-09
1.8266e-09
1.7981e-09
1.771e-09
1.7453e-09
1.7208e-09
1.6977e-09
1.6759e-09
1.6552e-09
1.6358e-09
1.6175e-09
1.6004e-09
1.5843e-09
1.5693e-09
1.5552e-09
1.5421e-09
1.53e-09
1.5187e-09
1.5083e-09
1.4986e-09
1.4898e-09
1.4817e-09
1.4743e-09
1.4676e-09
1.4616e-09
1.4562e-09
1.4514e-09
1.4471e-09
1.4434e-09
1.4405e-09
1.4383e-09
1.4362e-09
1.4313e-09
1.4209e-09
1.4176e-09
1.4514e-09
1.5474e-09
1.5899e-09
1.1563e-09
8.3976e-10
1.0667e-09
1.4157e-09
2.5585e-09
1
1
1
1
1
1
1
1
1
1
1
1
1
1
1
1
1
1
1
1
1
1
1
1
1
1
1
1
1
1
1
1
1
1
1
1
1
1
1
1
1
1
1
1
1
1
1
1
1
1
1
1
1
1
1
1
1
1
1
1
1
1
1
1
1
1
1
1
1
1
1
1
1
1
1
1
1
1
1
1
1
1
1
1
1
1
1
1
1
1
1
1
1
1
1
1
1
1
1
1
1
1
1
1
1
1
1
1
1
1
1
1
1
1
1
1
1
1
1
1
1
1
1
1
1
1
1
1
1
1
1
1
1
1
1
1
1
1
1
1
1
1
1
1
1
1
1
1
1
1
1
1
1
1
1
1
1
1
1
1
1
1
1
1
1
1
1
1
1
1
1
1
1
1
1
1
1
1
1
1
1
1
1
1
1
1
1
1
1
1
1
1
1
1
1
1
1
1
1
1
1
1
1
1
1
1
1
1
1
1
1
1
1
1
1
1
1
1
1
1
1
1
1
1
1
1
1
1
1
1
1
1
1
1
1
1
1
1
1
1
1
1
1
1
1
1
1
1
1
1
1
1
1
1
1
1
1
1
1
1
1
1
1
1
1
1
1
1
1
1
1
1
1
1
1
1
1
1
1
0.99994
0.99591
0.74818
0.0023076
9.323e-06
5.1587e-08
1.3302e-09
1.4265e-10
8.003e-11
1.4068e-10
5.4131e-10
2.5446e-09
1.0619e-08
3.7387e-08
9.1171e-08
1.6202e-07
2.1692e-07
2.4755e-07
2.5709e-07
2.558e-07
2.4961e-07
2.417e-07
2.3305e-07
2.2596e-07
2.1923e-07
2.1479e-07
2.1206e-07
2.0954e-07
2.0441e-07
1.9571e-07
1.8794e-07
1.9447e-07
2.4014e-07
2.8516e-07
2.4118e-07
1.1522e-07
4.6857e-08
1.2465e-08
5.6749e-09
3.0976e-09
2.2953e-09
1.7203e-09
1.9302e-09
2.2452e-09
3.0447e-09
3.64e-09
3.9527e-09
4.0331e-09
3.96e-09
3.818e-09
3.6568e-09
3.5067e-09
3.3768e-09
3.2679e-09
3.1753e-09
3.0939e-09
3.0191e-09
2.9483e-09
2.88e-09
2.8137e-09
2.7493e-09
2.6869e-09
2.6264e-09
2.568e-09
2.5115e-09
2.457e-09
2.4044e-09
2.3535e-09
2.3045e-09
2.2572e-09
2.2116e-09
2.1676e-09
2.1253e-09
2.0846e-09
2.0454e-09
2.0079e-09
1.9718e-09
1.9373e-09
1.9043e-09
1.8728e-09
1.8427e-09
1.814e-09
1.7867e-09
1.7607e-09
1.7361e-09
1.7128e-09
1.6907e-09
1.6698e-09
1.6501e-09
1.6316e-09
1.6142e-09
1.5978e-09
1.5824e-09
1.5681e-09
1.5547e-09
1.5422e-09
1.5306e-09
1.5198e-09
1.5099e-09
1.5007e-09
1.4923e-09
1.4847e-09
1.4777e-09
1.4715e-09
1.4659e-09
1.4609e-09
1.4565e-09
1.4529e-09
1.4502e-09
1.4476e-09
1.4421e-09
1.4313e-09
1.4276e-09
1.4613e-09
1.5576e-09
1.6001e-09
1.1637e-09
8.4514e-10
1.0734e-09
1.4244e-09
2.5738e-09
1
1
1
1
1
1
1
1
1
1
1
1
1
1
1
1
1
1
1
1
1
1
1
1
1
1
1
1
1
1
1
1
1
1
1
1
1
1
1
1
1
1
1
1
1
1
1
1
1
1
1
1
1
1
1
1
1
1
1
1
1
1
1
1
1
1
1
1
1
1
1
1
1
1
1
1
1
1
1
1
1
1
1
1
1
1
1
1
1
1
1
1
1
1
1
1
1
1
1
1
1
1
1
1
1
1
1
1
1
1
1
1
1
1
1
1
1
1
1
1
1
1
1
1
1
1
1
1
1
1
1
1
1
1
1
1
1
1
1
1
1
1
1
1
1
1
1
1
1
1
1
1
1
1
1
1
1
1
1
1
1
1
1
1
1
1
1
1
1
1
1
1
1
1
1
1
1
1
1
1
1
1
1
1
1
1
1
1
1
1
1
1
1
1
1
1
1
1
1
1
1
1
1
1
1
1
1
1
1
1
1
1
1
1
1
1
1
1
1
1
1
1
1
1
1
1
1
1
1
1
1
1
1
1
1
1
1
1
1
1
1
1
1
1
1
1
1
1
1
1
1
1
1
1
1
1
1
1
1
1
1
1
1
1
1
1
1
1
1
1
1
1
1
1
1
1
1
1
1
1
1
0.99986
0.99263
0.61553
0.00067913
1.2773e-06
7.7944e-09
3.2391e-10
7.7875e-11
8.789e-11
2.1907e-10
7.536e-10
3.3865e-09
1.3061e-08
4.2994e-08
9.8669e-08
1.6778e-07
2.192e-07
2.4605e-07
2.5421e-07
2.5018e-07
2.4296e-07
2.3621e-07
2.2818e-07
2.224e-07
2.1838e-07
2.1463e-07
2.0987e-07
2.03e-07
1.9501e-07
1.9382e-07
2.1329e-07
2.801e-07
3.3716e-07
2.6223e-07
1.7842e-07
7.4606e-08
3.2831e-08
1.1457e-08
6.5484e-09
3.0906e-09
2.196e-09
1.6642e-09
1.894e-09
2.2102e-09
2.9851e-09
3.5565e-09
3.8569e-09
3.9353e-09
3.866e-09
3.7302e-09
3.5765e-09
3.4344e-09
3.3126e-09
3.2109e-09
3.1238e-09
3.0459e-09
2.9733e-09
2.9037e-09
2.8364e-09
2.771e-09
2.7076e-09
2.6461e-09
2.5867e-09
2.5292e-09
2.4738e-09
2.4202e-09
2.3686e-09
2.3189e-09
2.2709e-09
2.2247e-09
2.1802e-09
2.1374e-09
2.0962e-09
2.0567e-09
2.0188e-09
1.9825e-09
1.9477e-09
1.9144e-09
1.8826e-09
1.8522e-09
1.8233e-09
1.7958e-09
1.7696e-09
1.7448e-09
1.7212e-09
1.6989e-09
1.6777e-09
1.6578e-09
1.639e-09
1.6212e-09
1.6046e-09
1.5889e-09
1.5742e-09
1.5605e-09
1.5477e-09
1.5358e-09
1.5248e-09
1.5146e-09
1.5052e-09
1.4966e-09
1.4887e-09
1.4816e-09
1.4752e-09
1.4694e-09
1.4643e-09
1.4601e-09
1.4567e-09
1.4535e-09
1.4476e-09
1.4362e-09
1.4322e-09
1.4656e-09
1.5618e-09
1.6041e-09
1.1664e-09
8.4706e-10
1.0757e-09
1.4273e-09
2.5789e-09
1
1
1
1
1
1
1
1
1
1
1
1
1
1
1
1
1
1
1
1
1
1
1
1
1
1
1
1
1
1
1
1
1
1
1
1
1
1
1
1
1
1
1
1
1
1
1
1
1
1
1
1
1
1
1
1
1
1
1
1
1
1
1
1
1
1
1
1
1
1
1
1
1
1
1
1
1
1
1
1
1
1
1
1
1
1
1
1
1
1
1
1
1
1
1
1
1
1
1
1
1
1
1
1
1
1
1
1
1
1
1
1
1
1
1
1
1
1
1
1
1
1
1
1
1
1
1
1
1
1
1
1
1
1
1
1
1
1
1
1
1
1
1
1
1
1
1
1
1
1
1
1
1
1
1
1
1
1
1
1
1
1
1
1
1
1
1
1
1
1
1
1
1
1
1
1
1
1
1
1
1
1
1
1
1
1
1
1
1
1
1
1
1
1
1
1
1
1
1
1
1
1
1
1
1
1
1
1
1
1
1
1
1
1
1
1
1
1
1
1
1
1
1
1
1
1
1
1
1
1
1
1
1
1
1
1
1
1
1
1
1
1
1
1
1
1
1
1
1
1
1
1
1
1
1
1
1
1
1
1
1
1
1
1
1
1
1
1
1
1
1
1
1
1
1
1
1
1
1
1
1
1
0.99999
0.9997
0.97648
0.055518
5.5538e-05
1.8317e-07
3.1691e-09
3.4275e-10
1.4497e-10
1.5029e-10
3.7745e-10
1.1633e-09
4.7079e-09
1.648e-08
5.1049e-08
1.0919e-07
1.7535e-07
2.2174e-07
2.4245e-07
2.4834e-07
2.4622e-07
2.3795e-07
2.3095e-07
2.2501e-07
2.2033e-07
2.1528e-07
2.0959e-07
2.0119e-07
1.9477e-07
1.9713e-07
2.208e-07
2.8227e-07
3.1098e-07
3.3139e-07
2.3171e-07
1.5039e-07
6.5683e-08
3.4796e-08
1.1294e-08
6.3074e-09
3.0052e-09
2.1538e-09
1.6363e-09
1.8582e-09
2.1696e-09
2.9396e-09
3.5153e-09
3.8177e-09
3.8885e-09
3.8058e-09
3.6591e-09
3.5031e-09
3.3654e-09
3.2505e-09
3.1548e-09
3.0713e-09
2.9952e-09
2.9235e-09
2.8549e-09
2.7885e-09
2.7241e-09
2.6617e-09
2.6013e-09
2.543e-09
2.4866e-09
2.4323e-09
2.3799e-09
2.3295e-09
2.2809e-09
2.2341e-09
2.1891e-09
2.1458e-09
2.1042e-09
2.0643e-09
2.0261e-09
1.9894e-09
1.9543e-09
1.9207e-09
1.8887e-09
1.8581e-09
1.8289e-09
1.8011e-09
1.7747e-09
1.7496e-09
1.7258e-09
1.7032e-09
1.6818e-09
1.6615e-09
1.6424e-09
1.6244e-09
1.6074e-09
1.5915e-09
1.5765e-09
1.5625e-09
1.5495e-09
1.5373e-09
1.526e-09
1.5156e-09
1.506e-09
1.4972e-09
1.4892e-09
1.4819e-09
1.4754e-09
1.4695e-09
1.4646e-09
1.4606e-09
1.4568e-09
1.4503e-09
1.4384e-09
1.4339e-09
1.4669e-09
1.5628e-09
1.6048e-09
1.1667e-09
8.4709e-10
1.0756e-09
1.4271e-09
2.5783e-09
1
1
1
1
1
1
1
1
1
1
1
1
1
1
1
1
1
1
1
1
1
1
1
1
1
1
1
1
1
1
1
1
1
1
1
1
1
1
1
1
1
1
1
1
1
1
1
1
1
1
1
1
1
1
1
1
1
1
1
1
1
1
1
1
1
1
1
1
1
1
1
1
1
1
1
1
1
1
1
1
1
1
1
1
1
1
1
1
1
1
1
1
1
1
1
1
1
1
1
1
1
1
1
1
1
1
1
1
1
1
1
1
1
1
1
1
1
1
1
1
1
1
1
1
1
1
1
1
1
1
1
1
1
1
1
1
1
1
1
1
1
1
1
1
1
1
1
1
1
1
1
1
1
1
1
1
1
1
1
1
1
1
1
1
1
1
1
1
1
1
1
1
1
1
1
1
1
1
1
1
1
1
1
1
1
1
1
1
1
1
1
1
1
1
1
1
1
1
1
1
1
1
1
1
1
1
1
1
1
1
1
1
1
1
1
1
1
1
1
1
1
1
1
1
1
1
1
1
1
1
1
1
1
1
1
1
1
1
1
1
1
1
1
1
1
1
1
1
1
1
1
1
1
1
1
1
1
1
1
1
1
1
1
1
1
1
1
1
1
1
1
1
1
1
1
1
1
1
1
1
1
1
1
1
0.99997
0.99856
0.89901
0.0083998
2.1685e-05
1.9827e-07
6.9984e-09
7.2328e-10
2.9766e-10
2.5953e-10
5.459e-10
1.5091e-09
5.9773e-09
2.123e-08
5.9399e-08
1.1838e-07
1.8039e-07
2.232e-07
2.4339e-07
2.4579e-07
2.4159e-07
2.3463e-07
2.282e-07
2.218e-07
2.1661e-07
2.0893e-07
2.0137e-07
1.949e-07
1.9743e-07
2.1337e-07
2.5352e-07
3.3386e-07
3.6283e-07
3.6513e-07
2.4026e-07
1.4966e-07
6.377e-08
3.3533e-08
1.098e-08
6.158e-09
2.9478e-09
2.1318e-09
1.6451e-09
1.9086e-09
2.2679e-09
3.0859e-09
3.6515e-09
3.8878e-09
3.8798e-09
3.7477e-09
3.5846e-09
3.4322e-09
3.3032e-09
3.1948e-09
3.1015e-09
3.0192e-09
2.944e-09
2.8734e-09
2.8058e-09
2.7405e-09
2.6773e-09
2.616e-09
2.5568e-09
2.4996e-09
2.4444e-09
2.3913e-09
2.3401e-09
2.2908e-09
2.2434e-09
2.1979e-09
2.1541e-09
2.1121e-09
2.0718e-09
2.0331e-09
1.9961e-09
1.9607e-09
1.9268e-09
1.8944e-09
1.8635e-09
1.834e-09
1.806e-09
1.7792e-09
1.7538e-09
1.7297e-09
1.7068e-09
1.6851e-09
1.6645e-09
1.6451e-09
1.6268e-09
1.6095e-09
1.5932e-09
1.578e-09
1.5637e-09
1.5504e-09
1.538e-09
1.5265e-09
1.5159e-09
1.5061e-09
1.4972e-09
1.4891e-09
1.4817e-09
1.4751e-09
1.4694e-09
1.4647e-09
1.4603e-09
1.4531e-09
1.4407e-09
1.4356e-09
1.4682e-09
1.5637e-09
1.6053e-09
1.1667e-09
8.4696e-10
1.0753e-09
1.4264e-09
2.5769e-09
1
1
1
1
1
1
1
1
1
1
1
1
1
1
1
1
1
1
1
1
1
1
1
1
1
1
1
1
1
1
1
1
1
1
1
1
1
1
1
1
1
1
1
1
1
1
1
1
1
1
1
1
1
1
1
1
1
1
1
1
1
1
1
1
1
1
1
1
1
1
1
1
1
1
1
1
1
1
1
1
1
1
1
1
1
1
1
1
1
1
1
1
1
1
1
1
1
1
1
1
1
1
1
1
1
1
1
1
1
1
1
1
1
1
1
1
1
1
1
1
1
1
1
1
1
1
1
1
1
1
1
1
1
1
1
1
1
1
1
1
1
1
1
1
1
1
1
1
1
1
1
1
1
1
1
1
1
1
1
1
1
1
1
1
1
1
1
1
1
1
1
1
1
1
1
1
1
1
1
1
1
1
1
1
1
1
1
1
1
1
1
1
1
1
1
1
1
1
1
1
1
1
1
1
1
1
1
1
1
1
1
1
1
1
1
1
1
1
1
1
1
1
1
1
1
1
1
1
1
1
1
1
1
1
1
1
1
1
1
1
1
1
1
1
1
1
1
1
1
1
1
1
1
1
1
1
1
1
1
1
1
1
1
1
1
1
1
1
1
1
1
1
1
1
1
1
1
1
1
1
1
1
1
1
1
1
0.99991
0.99643
0.83791
0.007458
3.3482e-05
3.1586e-07
1.0835e-08
1.0075e-09
3.7946e-10
2.9559e-10
5.9315e-10
1.8258e-09
6.7503e-09
2.3476e-08
6.4368e-08
1.2825e-07
1.897e-07
2.2649e-07
2.4198e-07
2.4314e-07
2.3931e-07
2.3235e-07
2.2592e-07
2.1766e-07
2.0975e-07
2.007e-07
1.9501e-07
1.9314e-07
2.001e-07
2.2103e-07
2.6219e-07
3.3653e-07
3.5725e-07
3.5516e-07
2.3204e-07
1.4491e-07
6.2094e-08
3.2658e-08
1.0766e-08
6.1633e-09
3.0784e-09
2.3585e-09
1.9112e-09
2.2542e-09
2.6185e-09
3.3802e-09
3.7868e-09
3.8844e-09
3.8088e-09
3.666e-09
3.5127e-09
3.3703e-09
3.245e-09
3.1384e-09
3.0469e-09
2.9665e-09
2.8931e-09
2.8241e-09
2.758e-09
2.6939e-09
2.6319e-09
2.5718e-09
2.5137e-09
2.4577e-09
2.4038e-09
2.3518e-09
2.3019e-09
2.2538e-09
2.2077e-09
2.1634e-09
2.1208e-09
2.0801e-09
2.041e-09
2.0035e-09
1.9677e-09
1.9334e-09
1.9007e-09
1.8694e-09
1.8396e-09
1.8111e-09
1.7841e-09
1.7583e-09
1.7338e-09
1.7105e-09
1.6885e-09
1.6676e-09
1.6478e-09
1.6292e-09
1.6116e-09
1.5951e-09
1.5796e-09
1.565e-09
1.5515e-09
1.5389e-09
1.5272e-09
1.5164e-09
1.5065e-09
1.4974e-09
1.4891e-09
1.4817e-09
1.4752e-09
1.4698e-09
1.4647e-09
1.4569e-09
1.4438e-09
1.4381e-09
1.4702e-09
1.5654e-09
1.6065e-09
1.1673e-09
8.4711e-10
1.0752e-09
1.4261e-09
2.576e-09
1
1
1
1
1
1
1
1
1
1
1
1
1
1
1
1
1
1
1
1
1
1
1
1
1
1
1
1
1
1
1
1
1
1
1
1
1
1
1
1
1
1
1
1
1
1
1
1
1
1
1
1
1
1
1
1
1
1
1
1
1
1
1
1
1
1
1
1
1
1
1
1
1
1
1
1
1
1
1
1
1
1
1
1
1
1
1
1
1
1
1
1
1
1
1
1
1
1
1
1
1
1
1
1
1
1
1
1
1
1
1
1
1
1
1
1
1
1
1
1
1
1
1
1
1
1
1
1
1
1
1
1
1
1
1
1
1
1
1
1
1
1
1
1
1
1
1
1
1
1