/*--------------------------------*- C++ -*----------------------------------*\
| =========                 |                                                 |
| \\      /  F ield         | OpenFOAM: The Open Source CFD Toolbox           |
|  \\    /   O peration     | Version:  5.x                                   |
|   \\  /    A nd           | Web:      www.OpenFOAM.org                      |
|    \\/     M anipulation  |                                                 |
\*---------------------------------------------------------------------------*/
FoamFile
{
    version     2.0;
    format      ascii;
    class       volScalarField;
    location    "130";
    object      gamma;
}
// * * * * * * * * * * * * * * * * * * * * * * * * * * * * * * * * * * * * * //

dimensions      [0 0 0 0 0 0 0];

internalField   nonuniform List<scalar> 
86400
(
2.777e-06
3.378e-06
5.044e-06
8.963e-06
1.814e-05
2.789e-05
3.271e-05
3.631e-05
4.079e-05
3.873e-05
5.111e-05
5.734e-05
5.994e-05
4.71e-05
4.406e-05
6.276e-05
0.0001831
0.0005852
0.00117
0.001473
0.001524
0.001777
0.002815
0.003551
0.00368
0.004478
0.004025
0.003668
0.003176
0.002851
0.002556
0.002603
0.00277
0.003136
0.003847
0.005602
0.006893
0.007493
0.006216
0.00584
0.005178
0.005582
0.005366
0.004223
0.003758
0.004031
0.005205
0.006339
0.007704
0.007284
0.007286
0.007617
0.008141
0.009008
0.009812
0.01153
0.0136
0.01427
0.01355
0.01248
0.01048
0.01032
0.01005
0.01074
0.0132
0.01711
0.01881
0.01973
0.01688
0.01586
0.01851
0.02454
0.02845
0.02793
0.02691
0.02685
0.02629
0.03004
0.03459
0.03445
0.03342
0.03073
0.02971
0.03303
0.04115
0.04556
0.04822
0.04529
0.04488
0.04348
0.03724
0.03737
0.0393
0.04757
0.05136
0.05255
0.04421
0.04038
0.03802
0.03538
0.03225
0.02581
0.02031
0.01451
0.01031
0.009957
0.01309
0.01796
0.01528
0.009931
0.00525
0.00337
0.003084
0.003357
0.003281
0.003055
0.002884
0.002778
0.002812
0.002866
0.002863
0.002781
0.002619
0.002398
0.002276
0.002259
0.002189
0.002117
0.002056
0.001942
0.001735
0.001898
0.001861
0.001582
0.001338
0.001202
0.001272
0.001633
0.001013
0.0003727
0.0001442
7.694e-05
7.221e-05
5.958e-05
2.536e-05
8.32e-06
3.367e-06
1.215e-06
8.873e-07
1.234e-06
2.562e-06
1.318e-05
0.000107
0.0003836
0.001033
0.001893
0.002391
0.004023
0.1285
0.9912
3.463e-06
3.683e-06
5.046e-06
8.057e-06
1.668e-05
2.573e-05
2.916e-05
2.843e-05
2.411e-05
1.971e-05
2.582e-05
3.43e-05
5.039e-05
6.344e-05
6.655e-05
7.531e-05
0.0001894
0.000582
0.001372
0.002772
0.003406
0.003787
0.004939
0.006262
0.006673
0.007006
0.006516
0.006064
0.005739
0.004906
0.004423
0.004511
0.004937
0.005763
0.007258
0.01047
0.01353
0.01599
0.01494
0.0146
0.013
0.01307
0.01273
0.01035
0.008171
0.007735
0.008136
0.008986
0.01082
0.01143
0.01227
0.01378
0.01589
0.01785
0.0159
0.01362
0.01167
0.009879
0.008496
0.00846
0.007604
0.007413
0.006877
0.006856
0.00776
0.01126
0.01389
0.01654
0.01596
0.01681
0.02028
0.02555
0.02339
0.0195
0.01582
0.01697
0.0223
0.03308
0.04164
0.04211
0.03865
0.03485
0.03699
0.04277
0.05588
0.06438
0.07121
0.06832
0.07077
0.07415
0.07185
0.0754
0.07689
0.07462
0.06755
0.05812
0.04505
0.03844
0.03482
0.03144
0.03112
0.03191
0.03444
0.03149
0.02271
0.01873
0.02147
0.02729
0.02874
0.02315
0.01256
0.007769
0.006274
0.006271
0.005974
0.005797
0.006108
0.006801
0.007828
0.008636
0.009212
0.00937
0.009132
0.008492
0.008131
0.008127
0.007781
0.007394
0.007042
0.006597
0.005966
0.005996
0.005242
0.004485
0.003892
0.003113
0.002639
0.002402
0.001341
0.0004793
0.0002326
0.0001211
9.207e-05
8.72e-05
5.571e-05
3.426e-05
2.101e-05
1.301e-05
1.647e-05
2.558e-05
5.586e-05
0.0001696
0.0006299
0.001833
0.006677
0.02279
0.07012
0.3526
0.7326
0.9863
5.061e-06
4.973e-06
6.246e-06
8.659e-06
1.659e-05
2.372e-05
2.469e-05
2.175e-05
1.548e-05
1.4e-05
1.936e-05
3.477e-05
5.725e-05
9.301e-05
9.539e-05
0.0001206
0.0003207
0.001006
0.001916
0.003678
0.003796
0.003929
0.005149
0.006872
0.006614
0.007642
0.008322
0.009533
0.01138
0.01127
0.01011
0.01099
0.01098
0.01053
0.01015
0.01093
0.01198
0.01331
0.01118
0.01086
0.01041
0.01219
0.01354
0.01389
0.01172
0.0113
0.01211
0.01323
0.01561
0.01757
0.01598
0.0134
0.01141
0.01024
0.008126
0.007765
0.006924
0.005766
0.004893
0.005017
0.004988
0.005316
0.005581
0.006567
0.007018
0.008585
0.01018
0.01223
0.01232
0.01424
0.01641
0.01638
0.01249
0.0112
0.01138
0.01753
0.03118
0.05065
0.06228
0.06559
0.0597
0.05146
0.05336
0.06063
0.08233
0.0937
0.1038
0.1025
0.0916
0.07685
0.05987
0.0485
0.03893
0.03956
0.0392
0.03811
0.03552
0.03434
0.03056
0.02835
0.03078
0.03681
0.0465
0.04714
0.03851
0.03319
0.03325
0.04129
0.04823
0.04272
0.02887
0.02154
0.01655
0.01572
0.01501
0.01533
0.015
0.01427
0.01342
0.01233
0.01214
0.01296
0.0129
0.01215
0.01175
0.0118
0.01133
0.01074
0.009979
0.009438
0.008823
0.008275
0.006026
0.003955
0.002949
0.002313
0.002296
0.002534
0.002027
0.001103
0.000631
0.0003941
0.0003548
0.000359
0.0002895
0.000208
0.0001446
0.000122
0.0001908
0.0003195
0.0005517
0.001225
0.003819
0.01203
0.04543
0.1687
0.5604
0.8769
0.9662
0.9978
7.747e-06
7.44e-06
7.95e-06
9.128e-06
1.483e-05
1.831e-05
1.618e-05
1.275e-05
9.385e-06
1.093e-05
1.426e-05
1.708e-05
1.86e-05
4.059e-05
5.61e-05
0.0001063
0.0002797
0.0005203
0.0005695
0.0007045
0.0006129
0.0004997
0.000849
0.001398
0.001413
0.001985
0.002895
0.004176
0.006674
0.008783
0.008184
0.01041
0.01154
0.01168
0.01082
0.01044
0.0103
0.01128
0.008845
0.009138
0.01046
0.01524
0.02347
0.03131
0.02174
0.01483
0.009747
0.007433
0.007241
0.008778
0.00731
0.005542
0.004955
0.004687
0.003804
0.003759
0.003198
0.002699
0.002647
0.003291
0.003785
0.004666
0.005541
0.006221
0.006278
0.007348
0.007977
0.008923
0.009182
0.01223
0.01643
0.01626
0.01339
0.01334
0.01228
0.01999
0.03515
0.04984
0.05004
0.05297
0.04713
0.0421
0.04336
0.04592
0.05178
0.05417
0.05694
0.05566
0.05403
0.05548
0.05758
0.05767
0.04861
0.04878
0.04538
0.04228
0.04032
0.04062
0.0361
0.03619
0.03743
0.03975
0.05283
0.05518
0.04213
0.0345
0.02861
0.03321
0.04149
0.0475
0.03549
0.03001
0.02252
0.02083
0.02066
0.02391
0.02571
0.02582
0.02406
0.02147
0.02008
0.02225
0.02261
0.02161
0.0211
0.02129
0.02058
0.01969
0.01898
0.01835
0.01775
0.01618
0.01102
0.006941
0.004491
0.002818
0.002182
0.001812
0.001662
0.001433
0.001014
0.0007072
0.0006691
0.000762
0.0009077
0.001048
0.001095
0.001251
0.00264
0.005471
0.01113
0.02073
0.04578
0.1177
0.4199
0.7717
0.9376
0.9918
0.9992
1
1.395e-05
1.49e-05
1.454e-05
1.509e-05
1.805e-05
1.624e-05
9.992e-06
8.349e-06
7.551e-06
1.091e-05
1.223e-05
8.67e-06
5.289e-06
1.187e-05
2.103e-05
7.828e-05
0.0003223
0.0003057
0.0001359
0.0001226
0.0001229
0.0001077
0.0002559
0.0003929
0.0004024
0.0007718
0.001831
0.004666
0.009877
0.01192
0.006721
0.005584
0.004571
0.004133
0.004006
0.003728
0.003123
0.003926
0.004283
0.006544
0.007964
0.009752
0.007956
0.006598
0.003395
0.002183
0.001236
0.001067
0.001383
0.002643
0.003142
0.003284
0.003009
0.003141
0.002833
0.002996
0.002757
0.002492
0.003146
0.004852
0.006847
0.0095
0.01282
0.0144
0.01161
0.009105
0.007918
0.007076
0.006482
0.00818
0.01094
0.00977
0.00974
0.01158
0.01341
0.01931
0.03106
0.03395
0.03061
0.03451
0.0313
0.02774
0.02962
0.03438
0.04257
0.05074
0.0549
0.04995
0.04597
0.04605
0.04546
0.05274
0.05062
0.05319
0.04808
0.0483
0.03739
0.03477
0.03187
0.02899
0.02175
0.01419
0.0125
0.01307
0.01344
0.01963
0.02348
0.0246
0.02892
0.04416
0.03757
0.03699
0.03043
0.02903
0.02508
0.02282
0.0179
0.01379
0.009874
0.009101
0.008377
0.009184
0.009253
0.009004
0.009006
0.009282
0.009365
0.009378
0.00949
0.009605
0.009667
0.008263
0.005179
0.003125
0.0016
0.000947
0.0007639
0.0008804
0.0009708
0.001128
0.001049
0.001024
0.00123
0.001713
0.002941
0.004729
0.006963
0.01061
0.02328
0.04191
0.08067
0.1545
0.364
0.6747
0.8772
0.9688
0.9944
0.9995
1
1
1.956e-05
2.557e-05
2.468e-05
2.536e-05
1.958e-05
1.32e-05
6.821e-06
6.441e-06
8.257e-06
1.689e-05
1.951e-05
8.148e-06
2.997e-06
4.875e-06
1.773e-05
8.325e-05
0.0002982
0.0001987
7.71e-05
8.175e-05
0.0001315
0.0001486
0.0003973
0.0002347
0.0001174
0.0001264
0.0002624
0.0007683
0.002791
0.003173
0.00152
0.001083
0.0008884
0.0008921
0.001306
0.001457
0.001011
0.00107
0.001197
0.001292
0.0009447
0.0007615
0.0003459
0.0001924
9.344e-05
3.734e-05
8.647e-06
6.564e-06
9.969e-06
2.899e-05
5.567e-05
0.0001172
0.0002093
0.0003256
0.0004005
0.0003898
0.0003194
0.0003794
0.001051
0.003054
0.006832
0.009561
0.008801
0.007901
0.00584
0.004422
0.005991
0.007396
0.007332
0.009601
0.01346
0.01107
0.011
0.01226
0.01159
0.01267
0.01319
0.01302
0.01323
0.01893
0.0241
0.03364
0.04392
0.05725
0.0718
0.08202
0.07966
0.06741
0.06321
0.07065
0.07396
0.06013
0.0348
0.02092
0.01134
0.008104
0.004873
0.004671
0.004311
0.005605
0.00596
0.005048
0.004217
0.003895
0.003508
0.005138
0.005676
0.007302
0.01019
0.01181
0.008901
0.008856
0.00819
0.008965
0.008201
0.007287
0.005694
0.004563
0.003616
0.003512
0.003133
0.003185
0.003083
0.003019
0.003037
0.003113
0.003228
0.00338
0.003578
0.003793
0.003955
0.003655
0.002797
0.002228
0.001423
0.0009821
0.0007395
0.0008356
0.001004
0.001434
0.001631
0.001886
0.002577
0.004345
0.009662
0.01886
0.03272
0.05725
0.1114
0.2341
0.5079
0.7076
0.8575
0.9505
0.9886
0.9983
0.9998
1
1
1
2.238e-05
3.567e-05
3.174e-05
2.838e-05
1.817e-05
1.154e-05
5.945e-06
8.527e-06
2.034e-05
5.251e-05
5.327e-05
1.727e-05
3.132e-06
3.435e-06
7.747e-06
5.05e-05
0.0002812
0.0003752
0.0002261
0.0003369
0.0007208
0.0007759
0.001412
0.0003481
0.0001032
6.681e-05
0.0001091
0.0002629
0.001198
0.001381
0.0006661
0.0003578
0.0003307
0.0004387
0.0007402
0.0007682
0.0003844
0.0003154
0.0004455
0.0004766
0.0002311
9.475e-05
1.898e-05
5.686e-06
2.513e-06
5.363e-07
7.842e-08
5.161e-08
8.614e-08
3.863e-07
1.127e-06
3.125e-06
7.538e-06
1.639e-05
2.506e-05
2.62e-05
2.567e-05
4.548e-05
0.0002614
0.001201
0.004436
0.007974
0.007593
0.008134
0.008475
0.006626
0.01029
0.01347
0.013
0.01279
0.01766
0.01099
0.008996
0.00911
0.009301
0.01175
0.01194
0.01077
0.008573
0.009803
0.01274
0.02308
0.03498
0.04203
0.05837
0.07984
0.09689
0.1001
0.12
0.1449
0.1166
0.09281
0.05431
0.0291
0.01243
0.007916
0.004059
0.003813
0.002835
0.004267
0.00478
0.003839
0.003321
0.00236
0.001478
0.001371
0.001286
0.001125
0.001869
0.002248
0.002309
0.002762
0.002849
0.003218
0.003191
0.002973
0.002252
0.00196
0.001644
0.001792
0.001758
0.00179
0.001744
0.001662
0.001636
0.001642
0.00167
0.001716
0.001803
0.00193
0.002095
0.002275
0.002296
0.002395
0.001983
0.001876
0.002132
0.003076
0.004772
0.008827
0.01345
0.01974
0.02926
0.04607
0.0786
0.1343
0.2654
0.4869
0.6622
0.806
0.9019
0.9616
0.9896
0.998
0.9997
1
1
1
1
1
3.3e-05
5.058e-05
3.599e-05
2.883e-05
1.962e-05
1.353e-05
9.506e-06
2.306e-05
5.22e-05
8.129e-05
8.012e-05
2.241e-05
3.878e-06
3.717e-06
7.57e-06
4.171e-05
0.0002629
0.0007046
0.001212
0.00403
0.008067
0.007622
0.008977
0.002125
0.0004556
0.0001201
0.0001372
0.0002085
0.0007201
0.0009245
0.00058
0.0005155
0.0005191
0.0007258
0.001041
0.0009429
0.0004382
0.000415
0.0007804
0.0004698
0.0001338
2.405e-05
3.888e-06
7.68e-07
4.038e-07
6.014e-08
7.302e-09
4.597e-09
9.051e-09
4.572e-08
1.725e-07
7.141e-07
3.015e-06
1.031e-05
1.626e-05
8.695e-06
4.669e-06
5.813e-06
3.221e-05
0.0002026
0.001408
0.004399
0.005771
0.007739
0.009578
0.008471
0.01281
0.01473
0.01141
0.007838
0.008337
0.005686
0.004592
0.004839
0.006439
0.008452
0.00907
0.01346
0.0146
0.02458
0.04046
0.09475
0.1714
0.276
0.4305
0.6559
0.8139
0.8693
0.9138
0.9268
0.8936
0.8506
0.7684
0.5644
0.2739
0.1489
0.05698
0.04301
0.02479
0.01859
0.01085
0.01041
0.005981
0.002596
0.000921
0.0005698
0.0007075
0.0006668
0.0009421
0.0005957
0.0004694
0.0004662
0.0006282
0.0009089
0.001029
0.00102
0.00119
0.00139
0.001467
0.002012
0.002322
0.002548
0.002724
0.002701
0.00258
0.002559
0.00261
0.002692
0.002862
0.003179
0.003771
0.004873
0.006768
0.009671
0.01139
0.01228
0.0136
0.017
0.02566
0.04801
0.0819
0.1419
0.2512
0.4304
0.5778
0.7208
0.8389
0.9208
0.9654
0.9875
0.9958
0.9989
0.9998
1
1
1
1
1
1
1
4.68e-05
5.651e-05
3.406e-05
2.523e-05
1.792e-05
1.534e-05
1.974e-05
4.349e-05
6.502e-05
7.371e-05
4.773e-05
1.768e-05
7.664e-06
9.513e-06
2.143e-05
7.752e-05
0.0002189
0.0005888
0.001319
0.002583
0.005802
0.009289
0.01795
0.009935
0.003407
0.001103
0.0005541
0.0005687
0.001089
0.001454
0.001161
0.001525
0.001378
0.001644
0.001381
0.0007721
0.0002501
0.0003152
0.0005727
0.0001893
3.824e-05
5.444e-06
1.089e-06
2.921e-07
2.897e-07
7.663e-08
1.955e-08
1.456e-08
2.78e-08
4.787e-08
1.1e-07
2.999e-07
1.003e-06
3.155e-06
5.543e-06
3.432e-06
1.597e-06
1.643e-06
6.441e-06
4.79e-05
0.0005803
0.003178
0.00714
0.01078
0.01126
0.00668
0.006589
0.006498
0.004624
0.003169
0.003477
0.002874
0.002849
0.003999
0.01032
0.02865
0.05837
0.1475
0.2757
0.5183
0.7183
0.8542
0.9201
0.9545
0.9757
0.9916
0.9968
0.9976
0.9975
0.9958
0.9879
0.9779
0.9714
0.9551
0.9477
0.9386
0.9054
0.8548
0.7182
0.4785
0.1981
0.1292
0.05927
0.02059
0.007771
0.003094
0.002246
0.001475
0.001235
0.0004132
0.0002625
0.0001609
0.0001648
0.0002318
0.0004124
0.0008621
0.001676
0.002051
0.001924
0.001927
0.002041
0.002527
0.003104
0.003458
0.003488
0.003511
0.003811
0.004293
0.005028
0.006248
0.008626
0.01369
0.02398
0.04126
0.06518
0.09678
0.1452
0.2332
0.3524
0.4989
0.6293
0.761
0.8599
0.9237
0.9585
0.9801
0.9916
0.997
0.9989
0.9996
0.9999
1
1
1
1
1
1
1
1
1
3.952e-05
3.956e-05
2.677e-05
2.164e-05
2.017e-05
2.472e-05
3.019e-05
4.34e-05
4.557e-05
4.17e-05
2.159e-05
1.39e-05
1.44e-05
2.664e-05
7.695e-05
0.0001763
0.0004785
0.000574
0.0007643
0.0006487
0.001142
0.002567
0.008634
0.01438
0.01023
0.003976
0.001287
0.001096
0.001112
0.001869
0.002666
0.005097
0.004849
0.004905
0.001935
0.0007723
0.0003602
0.0005126
0.000473
8.275e-05
1.266e-05
1.716e-06
5.723e-07
3.64e-07
4.783e-07
1.993e-07
1.32e-07
1.497e-07
1.534e-07
1.102e-07
1.042e-07
1.263e-07
4.679e-07
2.186e-06
4.766e-06
3.986e-06
2.59e-06
2.328e-06
5.827e-06
4.067e-05
0.0003899
0.002609
0.005554
0.007621
0.006374
0.003156
0.002072
0.002407
0.00251
0.002835
0.005162
0.007531
0.01621
0.0469
0.1448
0.3757
0.5944
0.7659
0.864
0.9282
0.9675
0.9852
0.9933
0.9967
0.9984
0.9996
0.9998
0.9999
0.9999
0.9997
0.999
0.9983
0.9984
0.998
0.9982
0.9978
0.9967
0.9937
0.9844
0.9594
0.9149
0.8734
0.7839
0.5959
0.231
0.08264
0.03891
0.01929
0.009865
0.002129
0.0006648
0.0002089
0.0001196
7.717e-05
0.0001346
0.0004127
0.001275
0.002586
0.003403
0.003093
0.0037
0.006372
0.009195
0.012
0.01547
0.01985
0.02917
0.04371
0.06266
0.08232
0.1161
0.1721
0.2376
0.3465
0.4912
0.6288
0.7494
0.8389
0.8817
0.9283
0.9615
0.9833
0.9931
0.9972
0.9986
0.9994
0.9997
0.9999
1
1
1
1
1
1
1
1
1
1
1
1
3.454e-05
2.906e-05
2.427e-05
2.812e-05
3.847e-05
3.04e-05
1.728e-05
1.325e-05
9.781e-06
1.016e-05
1.036e-05
1.259e-05
3.208e-05
0.000112
0.0002524
0.000541
0.0007885
0.0004102
0.0003247
0.0001607
0.0002627
0.0005305
0.003209
0.01249
0.01908
0.01143
0.007074
0.004534
0.00269
0.003387
0.003535
0.004198
0.00283
0.002153
0.0008776
0.0003832
0.0002862
0.0006609
0.0004495
8.83e-05
9.606e-06
1.661e-06
4.011e-07
2.483e-07
2.257e-07
2.609e-07
9.802e-07
2.462e-06
2.596e-06
7.905e-07
1.709e-07
7.926e-08
2.968e-07
2.719e-06
1.372e-05
3.284e-05
3.322e-05
2.41e-05
3.657e-05
0.0001888
0.0009418
0.003261
0.005119
0.005663
0.003708
0.002118
0.001551
0.002653
0.005104
0.01103
0.02724
0.09395
0.2899
0.6421
0.82
0.8956
0.9436
0.9697
0.9856
0.9936
0.9974
0.9987
0.9994
0.9997
0.9999
1
1
1
1
1
0.9999
0.9999
0.9999
0.9999
0.9999
0.9999
0.9999
0.9996
0.9991
0.9971
0.9931
0.9881
0.9793
0.9658
0.9451
0.8969
0.8007
0.6288
0.3399
0.1002
0.03042
0.00655
0.001758
0.0006215
0.0007721
0.001968
0.005477
0.0097
0.01293
0.01204
0.01611
0.0319
0.0517
0.07322
0.1038
0.1371
0.181
0.2448
0.3712
0.5059
0.6565
0.7717
0.825
0.8722
0.929
0.9656
0.9851
0.9936
0.9962
0.9979
0.9989
0.9995
0.9998
0.9999
1
1
1
1
1
1
1
1
1
1
1
1
1
1
1
1
3.214e-05
2.658e-05
2.673e-05
3.783e-05
5.642e-05
4.347e-05
1.493e-05
7.561e-06
3.8e-06
6.993e-06
1.082e-05
4.228e-05
0.0001621
0.0003815
0.0007567
0.001582
0.001338
0.0007397
0.0004027
0.0001523
0.000233
0.0006257
0.00406
0.01432
0.02453
0.01699
0.01491
0.009699
0.006864
0.006671
0.006224
0.004966
0.002569
0.001266
0.0007858
0.0004582
0.0004754
0.001231
0.0005134
8.333e-05
7.667e-06
8.534e-07
1.468e-07
9.74e-08
5.993e-08
1.3e-07
8.315e-07
5.202e-06
5.884e-06
1.627e-06
2.018e-07
9.372e-08
4.569e-07
7.071e-06
5.918e-05
0.0001594
0.0002087
0.0002017
0.0002508
0.0006603
0.001046
0.001548
0.001657
0.001963
0.001667
0.002439
0.004095
0.01361
0.049
0.1823
0.5244
0.773
0.8894
0.9478
0.9723
0.9836
0.9917
0.9964
0.9987
0.9995
0.9998
0.9999
0.9999
1
1
1
1
1
1
1
1
1
1
1
1
1
0.9999
0.9999
0.9997
0.9994
0.999
0.9987
0.998
0.9971
0.9954
0.9908
0.983
0.9744
0.9601
0.9437
0.9074
0.8045
0.5768
0.1849
0.08724
0.09492
0.1153
0.1192
0.1266
0.1199
0.1629
0.2813
0.4049
0.4992
0.6192
0.7429
0.8464
0.8931
0.9402
0.9643
0.9815
0.9908
0.9944
0.9961
0.9981
0.9992
0.9997
0.9999
0.9999
0.9999
1
1
1
1
1
1
1
1
1
1
1
1
1
1
1
1
1
1
1
1
1.94e-05
1.886e-05
2.103e-05
2.93e-05
5.622e-05
5.064e-05
1.606e-05
8.008e-06
7.631e-06
1.62e-05
4.257e-05
0.0002206
0.0005164
0.001036
0.001547
0.001919
0.001472
0.0009293
0.0004522
0.0001923
0.0002686
0.0007199
0.003393
0.009
0.01691
0.01464
0.01905
0.01553
0.01439
0.01218
0.01216
0.008086
0.004787
0.00293
0.001779
0.001154
0.001274
0.002515
0.0007464
0.0001477
1.739e-05
2.1e-06
2.384e-07
1.713e-07
9.353e-08
2.782e-07
2.67e-06
2.652e-05
2.541e-05
8.159e-06
6.407e-07
2.074e-07
6.455e-07
9.096e-06
6.02e-05
0.0002009
0.0003694
0.0004667
0.0006944
0.001281
0.00128
0.001351
0.001176
0.002181
0.004599
0.01511
0.05114
0.2818
0.6821
0.8592
0.9322
0.9642
0.9793
0.9887
0.9944
0.9975
0.999
0.9996
0.9999
0.9999
1
1
1
1
1
1
1
1
1
1
1
1
1
1
1
1
1
0.9999
0.9999
0.9999
0.9999
0.9999
0.9998
0.9998
0.9997
0.9993
0.9986
0.9977
0.9972
0.9972
0.9965
0.9939
0.9873
0.9684
0.9414
0.9236
0.8931
0.8757
0.8714
0.8703
0.9012
0.931
0.9504
0.9658
0.9802
0.9899
0.9952
0.9968
0.9983
0.9991
0.9996
0.9998
0.9999
0.9999
1
1
1
1
1
1
1
1
1
1
1
1
1
1
1
1
1
1
1
1
1
1
1
1
1
1
2.526e-05
2.321e-05
2.757e-05
3.252e-05
6.132e-05
7.936e-05
3.731e-05
3.171e-05
3.02e-05
6.722e-05
0.0001656
0.0006256
0.0008757
0.001225
0.001201
0.001211
0.001054
0.0007523
0.0004707
0.0003672
0.0005878
0.001347
0.003236
0.005298
0.006267
0.005368
0.008491
0.008293
0.01027
0.0129
0.01559
0.013
0.01074
0.006475
0.003312
0.001759
0.00141
0.002264
0.001206
0.0005426
0.0001181
2.203e-05
3.175e-06
2.272e-06
1.361e-06
3.887e-06
2.288e-05
0.0001958
0.0002346
0.0001156
1.271e-05
5.236e-06
1.019e-05
4.994e-05
0.0001828
0.0003618
0.0004827
0.0006701
0.0008859
0.001431
0.001677
0.002352
0.004386
0.01815
0.07528
0.3924
0.7316
0.8875
0.9464
0.9783
0.9919
0.9966
0.9979
0.9986
0.9992
0.9996
0.9998
0.9999
1
1
1
1
1
1
1
1
1
1
1
1
1
1
1
1
1
1
1
1
1
1
1
1
1
1
1
0.9999
0.9999
0.9998
0.9998
0.9998
0.9998
0.9997
0.9996
0.9991
0.9982
0.9968
0.9944
0.9934
0.994
0.9955
0.9971
0.9981
0.9986
0.999
0.9995
0.9998
0.9999
0.9999
1
1
1
1
1
1
1
1
1
1
1
1
1
1
1
1
1
1
1
1
1
1
1
1
1
1
1
1
1
1
1
1
5.978e-05
5.259e-05
7.052e-05
4.297e-05
5.934e-05
5.289e-05
4.465e-05
9.168e-05
0.0001947
0.0002036
0.000265
0.0004307
0.0005864
0.0007626
0.0008185
0.0004765
0.000144
4.621e-05
2.063e-05
1.607e-05
3.929e-05
0.0001502
0.0005764
0.001373
0.002202
0.002231
0.003206
0.003126
0.003508
0.003857
0.00499
0.006995
0.01004
0.007938
0.00394
0.001799
0.001187
0.002048
0.002009
0.002008
0.001079
0.0003854
9.682e-05
7.5e-05
4.516e-05
0.0001234
0.0003794
0.001766
0.002301
0.001533
0.0003551
0.0001329
0.0001232
0.0001965
0.0003836
0.000451
0.0005374
0.0007286
0.001196
0.002665
0.00681
0.01959
0.069
0.4006
0.7273
0.8756
0.9397
0.9765
0.9893
0.9962
0.9986
0.9995
0.9996
0.9998
0.9998
0.9999
0.9999
1
1
1
1
1
1
1
1
1
1
1
1
1
1
1
1
1
1
1
1
1
1
1
1
1
1
1
1
1
1
1
1
0.9999
0.9999
0.9999
0.9999
0.9999
0.9999
0.9999
0.9998
0.9998
0.9998
0.9999
0.9999
0.9999
1
1
1
1
1
1
1
1
1
1
1
1
1
1
1
1
1
1
1
1
1
1
1
1
1
1
1
1
1
1
1
1
1
1
1
1
1
1
0.0001744
0.0001702
0.0002641
8.909e-05
6.835e-05
5.62e-05
8.75e-05
0.0003247
0.000811
0.0005066
0.0003166
0.0002188
0.0001702
0.0004248
0.0003039
6.454e-05
1.261e-05
2.593e-06
1.12e-06
9.484e-07
3.759e-06
3.132e-05
0.0002076
0.0007682
0.00195
0.001916
0.002531
0.002763
0.002548
0.002579
0.003717
0.006982
0.01298
0.01361
0.0069
0.002793
0.001873
0.002733
0.00373
0.005804
0.006828
0.004557
0.002244
0.00207
0.001303
0.001183
0.001482
0.00301
0.005026
0.006768
0.00467
0.002232
0.001619
0.0009983
0.001086
0.0009229
0.001171
0.001987
0.005973
0.01618
0.07687
0.3294
0.6749
0.8563
0.9265
0.9605
0.9845
0.9958
0.9983
0.9994
0.9997
0.9999
0.9999
1
1
1
0.9999
1
1
1
1
1
1
1
1
1
1
1
1
1
1
1
1
1
1
1
1
1
1
1
1
1
1
1
1
1
1
1
1
1
1
1
1
1
1
1
1
1
1
1
1
1
1
1
1
1
1
1
1
1
1
1
1
1
1
1
1
1
1
1
1
1
1
1
1
1
1
1
1
1
1
1
1
1
1
1
1
1
1
1
0.000416
0.0004616
0.001055
0.0003171
0.0001023
6.08e-05
0.0001437
0.0005618
0.001437
0.000874
0.0003222
0.0001735
0.0001664
0.0004593
0.0001148
1.102e-05
1.988e-06
4.964e-07
3.583e-07
3.707e-07
1.967e-06
1.782e-05
0.0001456
0.0007256
0.003117
0.002572
0.003687
0.003685
0.002451
0.001951
0.002296
0.004775
0.01014
0.01246
0.007644
0.004301
0.004227
0.005486
0.008863
0.01336
0.01846
0.01791
0.01532
0.01095
0.005902
0.003069
0.002331
0.003073
0.005458
0.007922
0.006516
0.003821
0.00295
0.002114
0.002903
0.003393
0.00604
0.01527
0.05865
0.2325
0.6602
0.8348
0.9259
0.9693
0.9893
0.9965
0.9993
0.9999
0.9999
1
0.9999
0.9999
1
1
1
1
0.9999
1
1
1
1
1
1
1
1
1
1
1
1
1
1
1
1
1
1
1
1
1
1
1
1
1
1
1
1
1
1
1
1
1
1
1
1
1
1
1
1
1
1
1
1
1
1
1
1
1
1
1
1
1
1
1
1
1
1
1
1
1
1
1
1
1
1
1
1
1
1
1
1
1
1
1
1
1
1
1
1
1
1
1
0.0008395
0.001109
0.002107
0.0006694
0.0001604
0.000163
0.0003471
0.001483
0.002194
0.001099
0.0002923
0.0001251
0.0001164
0.0002298
2.376e-05
3.017e-06
1.037e-06
6.173e-07
8.562e-07
1.085e-06
5.362e-06
3.154e-05
0.0002955
0.001358
0.005669
0.003967
0.004834
0.004861
0.003673
0.003418
0.003574
0.005809
0.0112
0.01288
0.008691
0.006647
0.008452
0.01061
0.01387
0.01686
0.02334
0.0276
0.03872
0.03068
0.01605
0.00616
0.002803
0.002146
0.00315
0.005171
0.005562
0.005468
0.006773
0.007723
0.0121
0.02548
0.07013
0.1958
0.6023
0.8125
0.9101
0.9623
0.99
0.9978
0.9996
0.9999
1
1
1
1
1
1
1
1
1
1
0.9999
1
1
1
1
1
1
1
1
1
1
1
1
1
1
1
1
1
1
1
1
1
1
1
1
1
1
1
1
1
1
1
1
1
1
1
1
1
1
1
1
1
1
1
1
1
1
1
1
1
1
1
1
1
1
1
1
1
1
1
1
1
1
1
1
1
1
1
1
1
1
1
1
1
1
1
1
1
1
1
1
1
1
1
0.0009535
0.001468
0.002112
0.0007198
0.0001458
0.0002349
0.0007297
0.003915
0.004484
0.002016
0.0005257
0.0001749
9.544e-05
0.0001119
1.114e-05
2.224e-06
2.577e-06
4.546e-06
9.517e-06
1.309e-05
4.832e-05
0.0001786
0.00142
0.005578
0.0175
0.01013
0.009747
0.007518
0.005196
0.004124
0.00455
0.007086
0.01366
0.0169
0.01297
0.01164
0.01687
0.02222
0.02252
0.01719
0.01469
0.01336
0.0183
0.01818
0.0121
0.006266
0.003965
0.002267
0.002075
0.003196
0.004118
0.007017
0.01644
0.03093
0.06055
0.175
0.5225
0.7573
0.895
0.9512
0.9843
0.9961
0.9994
0.9999
1
1
1
1
1
1
1
1
0.9999
0.9999
0.9999
1
1
1
1
1
1
1
1
1
1
1
1
1
0.9999
0.9999
1
1
1
1
1
1
1
1
1
1
1
1
1
1
1
1
1
1
1
1
1
1
1
1
1
1
1
1
1
1
1
1
1
1
1
1
1
1
1
1
1
1
1
1
1
1
1
1
1
1
1
1
1
1
1
1
1
1
1
1
1
1
1
1
1
1
1
1
1
1
0.001407
0.001727
0.00194
0.0007843
0.0001788
0.0004725
0.001309
0.005386
0.005951
0.003737
0.001248
0.0005378
0.0002353
0.0001649
2.314e-05
8.743e-06
2.186e-05
5.967e-05
0.0001388
0.0001861
0.0005791
0.001362
0.005065
0.013
0.02202
0.01301
0.01007
0.008114
0.006203
0.005271
0.005768
0.009272
0.01871
0.0264
0.02264
0.01953
0.02192
0.02086
0.01541
0.009058
0.004996
0.003953
0.004915
0.007479
0.009472
0.009512
0.008437
0.004661
0.003562
0.003802
0.006062
0.01185
0.04383
0.1071
0.3581
0.6899
0.846
0.922
0.9754
0.9942
0.9992
0.9998
1
1
1
1
1
1
1
1
1
1
1
1
0.9999
1
1
1
1
1
0.9999
0.9999
0.9998
0.9998
0.9996
0.9996
0.9993
0.9988
0.9986
0.9988
0.9991
0.9997
0.9999
0.9999
0.9999
0.9999
0.9998
0.9998
0.9998
0.9999
0.9999
1
1
1
1
1
1
1
1
1
1
1
1
1
1
1
1
1
1
1
1
1
1
1
1
1
1
1
1
1
1
1
1
1
1
1
1
1
1
1
1
1
1
1
1
1
1
1
1
1
1
1
1
1
1
1
1
1
1
1
0.002292
0.002436
0.002653
0.0008538
0.0002422
0.0005199
0.0009431
0.003717
0.00542
0.005443
0.002367
0.00194
0.0011
0.0006586
0.0001438
6.861e-05
0.0001274
0.0002611
0.0005333
0.001142
0.003048
0.005352
0.009947
0.01234
0.01031
0.008186
0.0095
0.006781
0.00495
0.00372
0.002973
0.004284
0.01115
0.02255
0.02686
0.02483
0.02287
0.02033
0.01403
0.008337
0.003768
0.002352
0.002372
0.003714
0.006645
0.01119
0.01507
0.01037
0.01052
0.01062
0.01973
0.04078
0.1826
0.4846
0.7515
0.8832
0.9565
0.984
0.997
0.9996
0.9999
1
1
1
1
1
1
1
1
1
1
1
1
1
0.9999
1
1
1
0.9999
0.9995
0.9975
0.9963
0.994
0.9899
0.981
0.9817
0.9766
0.9706
0.9697
0.968
0.9726
0.9876
0.9933
0.9952
0.9957
0.9964
0.9956
0.9967
0.9983
0.9992
0.9996
0.9998
1
1
1
1
1
1
1
1
1
1
1
1
1
1
1
1
1
1
1
1
1
1
1
1
1
1
1
1
1
1
1
1
1
1
1
1
1
1
1
1
1
1
1
1
1
1
1
1
1
1
1
1
1
1
1
1
1
1
0.003537
0.003346
0.003342
0.0009344
0.0003447
0.0004328
0.0003941
0.001558
0.003796
0.006249
0.00437
0.007196
0.003573
0.002349
0.0008499
0.0005689
0.0006954
0.0009831
0.001136
0.002303
0.005992
0.00822
0.0104
0.008123
0.00545
0.005755
0.01092
0.009845
0.00714
0.004885
0.002737
0.002932
0.006113
0.01646
0.03101
0.03807
0.03614
0.02682
0.01681
0.01024
0.005162
0.002955
0.002563
0.003811
0.005822
0.01185
0.02077
0.02096
0.03363
0.05737
0.1506
0.4604
0.7884
0.8973
0.9644
0.9862
0.9965
0.9989
0.9998
1
1
1
1
1
1
1
1
1
1
1
1
1
1
0.9999
0.9995
0.9997
0.9996
0.9992
0.9975
0.9909
0.9629
0.9374
0.9139
0.8636
0.7677
0.7201
0.6895
0.6764
0.6609
0.6315
0.6196
0.657
0.7248
0.7908
0.8399
0.8766
0.9141
0.9474
0.9739
0.9853
0.9941
0.9973
0.9994
0.9997
0.9998
0.9996
0.9998
0.9999
1
1
1
1
1
1
1
1
1
1
1
1
1
1
1
1
1
1
1
1
1
1
1
1
1
1
1
1
1
1
1
1
1
1
1
1
1
1
1
1
1
1
1
1
1
1
1
1
1
1
1
1
0.004364
0.003973
0.004706
0.001223
0.0005575
0.000219
0.0001049
0.0004041
0.002241
0.007232
0.01238
0.02185
0.01039
0.007381
0.00355
0.002589
0.001671
0.001886
0.001472
0.002712
0.004692
0.005319
0.00641
0.004662
0.005507
0.00819
0.01841
0.01753
0.01339
0.007213
0.003472
0.002468
0.00362
0.01082
0.02846
0.05139
0.05724
0.03559
0.02061
0.01364
0.008357
0.006033
0.00579
0.006948
0.00977
0.01792
0.03483
0.05567
0.1223
0.2998
0.6302
0.8396
0.9507
0.9823
0.9966
0.9992
0.9999
1
1
1
1
1
1
1
1
1
1
1
1
1
1
1
0.9999
0.999
0.9961
0.9951
0.9915
0.9803
0.9554
0.8877
0.7431
0.6145
0.545
0.4667
0.3433
0.2412
0.1803
0.1643
0.1392
0.1184
0.1012
0.09053
0.1065
0.1574
0.2448
0.3437
0.5274
0.6761
0.7991
0.8701
0.9351
0.9561
0.9843
0.9901
0.9925
0.9941
0.9982
0.9993
0.9999
0.9999
0.9999
0.9999
1
1
1
1
1
1
1
1
1
1
1
1
1
1
1
1
1
1
1
1
1
1
1
1
1
1
1
1
1
1
1
1
1
1
1
1
1
1
1
1
1
1
1
1
1
0.9998
0.9996
0.9985
0.003243
0.003327
0.004281
0.001225
0.0009811
0.000221
9.466e-05
0.0002358
0.001583
0.004324
0.0122
0.01971
0.01186
0.009556
0.006357
0.005819
0.003854
0.003489
0.003214
0.003332
0.004148
0.003908
0.003941
0.003025
0.003763
0.005088
0.01179
0.01479
0.0159
0.01102
0.00483
0.002077
0.001791
0.003686
0.01167
0.02952
0.04139
0.02571
0.01547
0.01229
0.01217
0.01339
0.01719
0.02031
0.02795
0.05252
0.113
0.263
0.5546
0.7663
0.8941
0.9597
0.9886
0.9963
0.9994
0.9999
1
1
1
1
1
1
1
1
1
1
1
1
1
1
0.9999
0.9996
0.9985
0.9918
0.9708
0.9422
0.8764
0.742
0.5708
0.3202
0.2
0.1425
0.1001
0.06147
0.03175
0.01723
0.01175
0.01423
0.01491
0.01705
0.01358
0.01092
0.01317
0.02254
0.03855
0.06015
0.08952
0.1117
0.1595
0.2259
0.3243
0.4704
0.7806
0.8851
0.9276
0.9522
0.9778
0.9893
0.9975
0.9985
0.9987
0.999
0.9995
0.9999
1
1
1
1
1
1
1
1
1
1
1
1
1
1
1
1
1
1
1
1
1
1
1
1
1
1
1
1
1
1
1
1
1
1
1
1
1
1
1
0.9999
0.9998
0.9996
0.9983
0.9918
0.9749
0.9323
0.002566
0.003505
0.005853
0.001555
0.001404
0.0001909
8.629e-05
0.0001399
0.001646
0.003343
0.009468
0.01012
0.007798
0.007191
0.004992
0.004648
0.004375
0.00502
0.005798
0.003986
0.002522
0.001571
0.001831
0.002459
0.004006
0.004041
0.007258
0.00964
0.0104
0.007618
0.003905
0.001494
0.001117
0.002261
0.006927
0.01957
0.03191
0.02407
0.01576
0.01472
0.01954
0.02676
0.03944
0.04851
0.07065
0.1292
0.3272
0.6044
0.7938
0.9032
0.9601
0.9856
0.9957
0.9986
0.9998
0.9999
1
1
1
1
1
1
1
1
1
1
1
1
0.9999
0.9993
0.9968
0.9875
0.9639
0.8932
0.7751
0.6157
0.4233
0.2051
0.08986
0.04216
0.01783
0.01079
0.00714
0.004537
0.002569
0.001915
0.001189
0.001876
0.002994
0.004064
0.003378
0.002902
0.003607
0.006852
0.01198
0.01916
0.0263
0.03124
0.04621
0.07275
0.09956
0.1265
0.1741
0.2543
0.3809
0.5612
0.7537
0.8717
0.9439
0.9634
0.9776
0.9911
0.9975
0.9994
0.9999
1
1
1
1
1
1
1
1
1
1
1
1
1
1
1
1
1
1
1
1
1
1
1
1
1
1
1
1
1
1
1
1
1
1
1
0.9999
0.9996
0.9989
0.9964
0.989
0.9682
0.9114
0.7804
0.6298
0.4509
0.00284
0.004688
0.01002
0.002369
0.001686
0.000189
0.000117
0.0001921
0.001243
0.002071
0.005066
0.005777
0.007275
0.007045
0.003634
0.003282
0.00461
0.008585
0.01071
0.004682
0.001332
0.0005993
0.0008405
0.001637
0.003887
0.004065
0.004823
0.006519
0.007196
0.005156
0.003067
0.001308
0.0009782
0.00196
0.004827
0.01221
0.0182
0.01465
0.01171
0.01379
0.02295
0.03615
0.05669
0.07775
0.1408
0.3783
0.6852
0.8598
0.9474
0.9807
0.9922
0.9964
0.9987
0.9996
0.9999
1
1
1
1
1
1
1
1
1
1
1
0.9998
0.9995
0.9977
0.9877
0.9559
0.894
0.7779
0.5826
0.2705
0.08675
0.03739
0.01669
0.007512
0.00452
0.002531
0.00195
0.001347
0.0009264
0.0005025
0.0005808
0.0004565
0.000814
0.00139
0.002377
0.002038
0.001692
0.001899
0.003506
0.00599
0.01006
0.0134
0.01431
0.02322
0.0374
0.05276
0.06379
0.08303
0.1112
0.12
0.1577
0.2551
0.4345
0.5811
0.6764
0.8225
0.9588
0.9935
0.9991
0.9998
1
1
1
1
1
1
1
1
1
1
1
1
1
1
1
1
1
1
1
1
1
1
1
1
1
1
1
1
1
1
0.9999
0.9998
0.9996
0.9991
0.9973
0.9925
0.9738
0.9263
0.8237
0.6597
0.4841
0.2923
0.1447
0.07892
0.02361
0.002249
0.004121
0.01233
0.003147
0.00191
0.0002366
0.0001496
0.0002607
0.001526
0.001861
0.002529
0.00312
0.006358
0.007661
0.002905
0.00178
0.001987
0.005077
0.009232
0.005993
0.001192
0.0004607
0.0005226
0.001338
0.003616
0.004066
0.004004
0.004879
0.004337
0.002953
0.001917
0.00131
0.001328
0.003341
0.006538
0.01114
0.01204
0.009836
0.007849
0.0101
0.01711
0.03091
0.06535
0.157
0.4397
0.731
0.8746
0.9563
0.9873
0.9974
0.9993
0.9998
0.9999
1
1
1
1
1
1
1
1
1
1
1
0.9999
0.9995
0.9971
0.9894
0.9687
0.8904
0.7347
0.5178
0.1619
0.06781
0.03281
0.0137
0.006666
0.003825
0.002196
0.001811
0.001278
0.001095
0.0007291
0.0007438
0.0006139
0.0008916
0.000789