/*--------------------------------*- C++ -*----------------------------------*\
| =========                 |                                                 |
| \\      /  F ield         | OpenFOAM: The Open Source CFD Toolbox           |
|  \\    /   O peration     | Version:  5.x                                   |
|   \\  /    A nd           | Web:      www.OpenFOAM.org                      |
|    \\/     M anipulation  |                                                 |
\*---------------------------------------------------------------------------*/
FoamFile
{
    version     2.0;
    format      ascii;
    class       volScalarField;
    location    "115";
    object      gamma;
}
// * * * * * * * * * * * * * * * * * * * * * * * * * * * * * * * * * * * * * //

dimensions      [0 0 0 0 0 0 0];

internalField   nonuniform List<scalar> 
86400
(
5.069e-06
6.557e-06
1.011e-05
1.993e-05
4.194e-05
7.036e-05
8.393e-05
0.0001011
0.0001237
0.0001263
0.0001253
9.997e-05
8.467e-05
7.845e-05
0.0001569
0.0003813
0.001279
0.002054
0.002826
0.002797
0.003366
0.004129
0.005929
0.005666
0.0056
0.007412
0.008252
0.008957
0.00861
0.008399
0.008032
0.008468
0.008903
0.009213
0.009675
0.01101
0.01088
0.009924
0.00775
0.006799
0.00594
0.006127
0.005747
0.004999
0.004913
0.005469
0.006791
0.007759
0.008455
0.008063
0.008136
0.00843
0.008707
0.00879
0.008769
0.009345
0.01021
0.01075
0.01089
0.01063
0.009537
0.009422
0.008824
0.008963
0.0103
0.01247
0.0145
0.01544
0.0133
0.01208
0.01295
0.01485
0.01752
0.01607
0.01436
0.01233
0.01035
0.0102
0.01173
0.01345
0.01698
0.01908
0.01873
0.01772
0.0173
0.01591
0.01623
0.01595
0.01665
0.01738
0.01659
0.01837
0.02094
0.02669
0.02968
0.03139
0.02798
0.02685
0.02628
0.02538
0.02417
0.02485
0.0224
0.01888
0.01289
0.01185
0.01302
0.01927
0.02264
0.02447
0.02096
0.01923
0.01677
0.01344
0.009443
0.007435
0.006768
0.006695
0.006346
0.005849
0.005498
0.005216
0.005423
0.005427
0.005292
0.005185
0.005022
0.004849
0.004448
0.003744
0.002788
0.002381
0.002211
0.002214
0.002275
0.002499
0.002773
0.003237
0.001994
0.0007912
0.0003577
0.0003674
0.0005508
0.0008499
0.0007378
0.0004012
0.0002476
0.0002367
0.0003431
0.0004883
0.0008285
0.001311
0.002284
0.002552
0.002939
0.0036
0.003892
0.00444
0.07803
0.9531
6.524e-06
7.65e-06
1.112e-05
1.842e-05
3.4e-05
5.092e-05
5.668e-05
6.415e-05
6.986e-05
5.313e-05
4.948e-05
4.863e-05
5.867e-05
9.668e-05
0.0002248
0.0004978
0.001153
0.002015
0.003287
0.004658
0.007347
0.01158
0.01638
0.01632
0.0153
0.01488
0.01252
0.009951
0.007915
0.006555
0.006107
0.00731
0.009135
0.01131
0.01355
0.01595
0.01645
0.01629
0.01444
0.01318
0.01135
0.01096
0.01042
0.00959
0.009382
0.01025
0.01131
0.01236
0.01338
0.01362
0.0146
0.016
0.01734
0.01828
0.01819
0.0165
0.01449
0.01284
0.01155
0.01104
0.01058
0.01082
0.01018
0.01048
0.01215
0.01624
0.01923
0.02088
0.01879
0.01801
0.01954
0.02021
0.01883
0.01505
0.01235
0.01174
0.01393
0.01773
0.02139
0.0232
0.02647
0.02877
0.03141
0.03271
0.03365
0.03214
0.03308
0.03275
0.03548
0.0392
0.04058
0.04465
0.04711
0.04761
0.04527
0.04248
0.03728
0.03259
0.02752
0.0254
0.02523
0.02928
0.03382
0.02988
0.01858
0.01475
0.01483
0.01859
0.02448
0.02818
0.02397
0.02321
0.02389
0.02384
0.02181
0.0199
0.01889
0.01917
0.01852
0.01665
0.01539
0.01404
0.0138
0.01361
0.01315
0.01292
0.0124
0.01182
0.01033
0.008368
0.005969
0.005054
0.004665
0.005331
0.006038
0.006585
0.006814
0.007012
0.004666
0.002337
0.00163
0.001573
0.001711
0.002068
0.00207
0.001489
0.001304
0.001583
0.002513
0.003094
0.00359
0.004207
0.005713
0.007531
0.01362
0.03001
0.06424
0.2016
0.6001
0.948
1.04e-05
1.163e-05
1.462e-05
1.929e-05
3.072e-05
3.993e-05
4.097e-05
4.44e-05
4.322e-05
3.372e-05
3.454e-05
4.599e-05
7.037e-05
0.0001439
0.0003299
0.0008179
0.001778
0.003584
0.005431
0.008537
0.012
0.01886
0.02499
0.02429
0.02445
0.02691
0.02434
0.0195
0.01492
0.01115
0.01048
0.01377
0.01755
0.02019
0.02061
0.02023
0.01887
0.01861
0.01697
0.01536
0.01301
0.01254
0.01201
0.01249
0.01383
0.01637
0.01818
0.02013
0.02241
0.02044
0.01752
0.0146
0.0125
0.01165
0.01237
0.01158
0.01078
0.009896
0.009543
0.009589
0.01012
0.01102
0.0111
0.01275
0.01415
0.01616
0.01783
0.01893
0.01765
0.01733
0.01793
0.01586
0.01345
0.01223
0.01266
0.01768
0.02709
0.03673
0.04188
0.04433
0.04703
0.04975
0.05422
0.05791
0.0631
0.06172
0.06058
0.05654
0.04585
0.0345
0.02429
0.0181
0.01722
0.02086
0.02457
0.02798
0.0294
0.0244
0.02015
0.01912
0.01962
0.02286
0.02728
0.02313
0.01512
0.01333
0.01572
0.02197
0.03277
0.03606
0.03261
0.03635
0.04144
0.04365
0.04011
0.03699
0.03297
0.03206
0.02949
0.02598
0.02248
0.02115
0.02053
0.02
0.01893
0.01824
0.01712
0.01616
0.01393
0.0115
0.008686
0.00748
0.006824
0.007839
0.009673
0.01128
0.0124
0.01307
0.01029
0.007046
0.005965
0.005773
0.00621
0.006943
0.007211
0.005908
0.005184
0.005815
0.008169
0.00937
0.01089
0.01201
0.01734
0.02813
0.06441
0.1916
0.3933
0.7531
0.9072
0.9863
1.855e-05
1.897e-05
2.013e-05
2.124e-05
2.688e-05
2.767e-05
2.466e-05
2.5e-05
2.534e-05
2.419e-05
3.165e-05
3.406e-05
4.096e-05
8.675e-05
0.0002346
0.0005372
0.001286
0.001974
0.001631
0.001817
0.002168
0.002789
0.004327
0.005462
0.006848
0.01003
0.0124
0.01226
0.01143
0.009995
0.009935
0.01478
0.02115
0.02613
0.02576
0.02331
0.02067
0.02111
0.02048
0.01971
0.01808
0.01933
0.02229
0.02781
0.02827
0.02563
0.01969
0.01579
0.01464
0.01272
0.009811
0.007966
0.007407
0.007002
0.00769
0.006879
0.005774
0.005377
0.006384
0.007974
0.009881
0.01202
0.01337
0.01527
0.01616
0.01673
0.01626
0.0157
0.01422
0.01674
0.02032
0.01869
0.01767
0.01852
0.01848
0.02813
0.04288
0.05185
0.0493
0.05101
0.0447
0.03877
0.03472
0.02991
0.02655
0.02537
0.02372
0.02206
0.01931
0.01735
0.01509
0.01259
0.01306
0.01567
0.01822
0.02059
0.02337
0.01887
0.01573
0.01524
0.01653
0.02025
0.02658
0.02445
0.01645
0.012
0.01151
0.01501
0.02038
0.02275
0.02111
0.02226
0.02242
0.02901
0.03369
0.0415
0.04554
0.05256
0.04843
0.04384
0.03656
0.03557
0.0341
0.03299
0.03107
0.02978
0.02809
0.02722
0.02489
0.02207
0.01785
0.01617
0.01562
0.01662
0.01815
0.01827
0.01735
0.01529
0.01522
0.01463
0.01543
0.01509
0.01537
0.01559
0.01748
0.01856
0.0207
0.02636
0.0382
0.04133
0.04634
0.05126
0.0738
0.1449
0.2844
0.5982
0.7846
0.9539
0.9936
0.9996
3.985e-05
3.454e-05
3.101e-05
2.797e-05
2.644e-05
2.33e-05
1.758e-05
1.708e-05
1.979e-05
2.196e-05
3.351e-05
2.704e-05
1.599e-05
2.615e-05
8.968e-05
0.0003013
0.001387
0.001384
0.0006357
0.0004127
0.0004845
0.0006264
0.001097
0.001172
0.001632
0.003474
0.008287
0.0156
0.02235
0.01698
0.01149
0.01143
0.01127
0.01124
0.01107
0.009863
0.008059
0.009718
0.01329
0.01801
0.01687
0.01309
0.008614
0.00711
0.005485
0.004451
0.003777
0.004106
0.00568
0.007194
0.006406
0.004753
0.005163
0.005792
0.006812
0.005837
0.004414
0.004391
0.005988
0.009302
0.01402
0.01959
0.02501
0.0284
0.02559
0.01907
0.01542
0.01232
0.009464
0.009362
0.01105
0.01023
0.0126
0.0175
0.01994
0.02302
0.02675
0.02367
0.01971
0.02139
0.01824
0.01477
0.01302
0.0118
0.01151
0.01337
0.01416
0.01339
0.01236
0.01199
0.01004
0.009071
0.01028
0.0124
0.01672
0.01914
0.02168
0.01781
0.01608
0.01394
0.01038
0.008605
0.01052
0.012
0.0127
0.01386
0.01455
0.01724
0.01964
0.0193
0.01545
0.01425
0.01281
0.01851
0.02009
0.02286
0.02202
0.02368
0.01927
0.01947
0.0178
0.01837
0.01775
0.0171
0.01613
0.01529
0.01449
0.01505
0.01576
0.01648
0.01623
0.01574
0.01485
0.0139
0.01366
0.0127
0.01214
0.01198
0.01333
0.01424
0.01675
0.01863
0.02111
0.02497
0.03163
0.0358
0.03844
0.04117
0.05503
0.06491
0.09505
0.1642
0.326
0.5309
0.7262
0.8759
0.9571
0.9942
0.9994
1
6.528e-05
5.085e-05
4.28e-05
3.648e-05
2.729e-05
2.066e-05
1.651e-05
1.653e-05
2.314e-05
3.386e-05
6.344e-05
3.602e-05
1.338e-05
1.208e-05
6.101e-05
0.0001956
0.0009744
0.0008097
0.0003272
0.0001751
0.0002737
0.0003792
0.0006683
0.0004583
0.0004344
0.0006459
0.001283
0.003393
0.007603
0.006806
0.004228
0.00327
0.002804
0.002757
0.003529
0.003655
0.002486
0.002401
0.002998
0.002883
0.001718
0.001029
0.0004135
0.0002169
0.0001384
7.607e-05
3.938e-05
4.677e-05
9.546e-05
0.0002026
0.0002896
0.0003895
0.0006621
0.001506
0.002486
0.002181
0.001302
0.001143
0.001673
0.003708
0.007447
0.01196
0.01397
0.01599
0.01495
0.01101
0.01147
0.01007
0.007494
0.006835
0.008499
0.007986
0.01085
0.01426
0.01294
0.01033
0.008201
0.006973
0.007543
0.01147
0.01393
0.0143
0.01255
0.01188
0.01211
0.01516
0.01824
0.01912
0.02122
0.02443
0.02815
0.02471
0.02391
0.02209
0.02062
0.02072
0.02133
0.02014
0.02305
0.0226
0.0169
0.01212
0.01161
0.01231
0.01494
0.0162
0.01245
0.01286
0.01293
0.0117
0.007134
0.004947
0.003477
0.005194
0.006818
0.009129
0.009276
0.008932
0.007311
0.007586
0.006971
0.007101
0.006888
0.006629
0.006334
0.006086
0.005911
0.006602
0.007678
0.009078
0.01006
0.01082
0.01122
0.01086
0.01159
0.01109
0.01236
0.01381
0.01673
0.01802
0.02142
0.02402
0.02699
0.03147
0.03993
0.04885
0.06096
0.07953
0.1237
0.201
0.4078
0.5392
0.7407
0.8485
0.9489
0.9859
0.9971
0.9996
1
1
8.944e-05
5.97e-05
4.429e-05
3.235e-05
2.653e-05
2.335e-05
2.404e-05
2.813e-05
4.936e-05
7.495e-05
0.0001202
6.039e-05
1.263e-05
8.807e-06
3.476e-05
0.0001576
0.001308
0.002328
0.001135
0.0006964
0.001288
0.001482
0.002053
0.0009779
0.0005753
0.0005967
0.0009669
0.002018
0.004922
0.0049
0.003289
0.001799
0.001407
0.001532
0.002222
0.002375
0.001282
0.0009354
0.001153
0.0009106
0.0003262
0.0001008
1.757e-05
4.825e-06
2.538e-06
8.367e-07
4.027e-07
6.694e-07
2.755e-06
1.094e-05
2.705e-05
3.082e-05
3.483e-05
5.588e-05
6.087e-05
7.364e-05
9.675e-05
0.0001968
0.0005856
0.001956
0.00415
0.007591
0.01019
0.0148
0.01547
0.009947
0.01005
0.008382
0.006485
0.005182
0.006516
0.005823
0.009547
0.01377
0.01399
0.01075
0.008217
0.007151
0.007842
0.01289
0.01993
0.02744
0.0321
0.03534
0.03731
0.04
0.04272
0.04188
0.05304
0.0738
0.08085
0.0696
0.0565
0.04417
0.03694
0.03154
0.02549
0.02168
0.02448
0.02424
0.02084
0.01436
0.0133
0.01761
0.02756
0.03108
0.02418
0.02139
0.01777
0.01192
0.006557
0.003402
0.00211
0.002966
0.004572
0.0056
0.005223
0.004274
0.003371
0.003563
0.00347
0.003577
0.003586
0.003516
0.003425
0.003327
0.00327
0.003722
0.004595
0.006013
0.007388
0.008699
0.009568
0.009247
0.01021
0.0124
0.01629
0.02153
0.03039
0.03572
0.04392
0.05297
0.06444
0.08089
0.118
0.1816
0.2943
0.4287
0.5614
0.6733
0.7916
0.8669
0.9567
0.9842
0.9972
0.9994
0.9999
1
1
1
0.000146
7.513e-05
4.61e-05
3.164e-05
2.897e-05
2.947e-05
4.372e-05
6.466e-05
8.779e-05
7.325e-05
9.109e-05
4.137e-05
9.056e-06
1.007e-05
4.915e-05
0.0002847
0.002663
0.007525
0.006225
0.006824
0.009457
0.009631
0.01056
0.005162
0.002555
0.00121
0.0008098
0.0009826
0.001929
0.002364
0.002141
0.001727
0.001455
0.001865
0.003029
0.003641
0.002018
0.00148
0.001516
0.000539
9.686e-05
1.239e-05
1.467e-06
3.315e-07
2.93e-07
1.095e-07
5.464e-08
7.168e-08
1.375e-07
4.821e-07
1.414e-06
1.707e-06
2.425e-06
4.626e-06
4.794e-06
5.441e-06
1.084e-05
3.986e-05
0.000198
0.001055
0.002804
0.005763
0.008967
0.01654
0.01762
0.01146
0.009725
0.007638
0.005867
0.005211
0.006335
0.006293
0.009488
0.01483
0.01854
0.01781
0.01438
0.01504
0.01817
0.03161
0.049
0.07052
0.09643
0.1286
0.1576
0.1981
0.22
0.2077
0.2419
0.3526
0.4272
0.4891
0.4052
0.3141
0.2326
0.1663
0.1103
0.09154
0.0783
0.07108
0.06901
0.05826
0.05093
0.04498
0.04586
0.03938
0.0297
0.02615
0.02263
0.01496
0.007676
0.002755
0.001766
0.002523
0.004558
0.005807
0.006175
0.004292
0.003305
0.003529
0.003668
0.003756
0.003834
0.003914
0.004006
0.004139
0.004379
0.005269
0.006795
0.009072
0.01173
0.01447
0.01648
0.01677
0.01916
0.02454
0.03557
0.05156
0.07847
0.1099
0.1678
0.2479
0.353
0.4222
0.5225
0.6395
0.761
0.8393
0.906
0.9456
0.9751
0.9886
0.9975
0.9992
0.9999
1
1
1
1
1
0.0002348
8.61e-05
4.311e-05
2.718e-05
2.78e-05
3.654e-05
8.847e-05
9.832e-05
7.811e-05
4.669e-05
3.432e-05
2.077e-05
1.246e-05
2.786e-05
0.0001559
0.0006993
0.001962
0.003189
0.002492
0.00255
0.005062
0.01177
0.0227
0.02365
0.01835
0.007161
0.002643
0.001475
0.001685
0.002196
0.002934
0.002635
0.001907
0.002193
0.002903
0.003386
0.002176
0.001772
0.002133
0.0003623
3.08e-05
1.938e-06
1.742e-07
5.637e-08
1.63e-07
1.275e-07
8.329e-08
8.04e-08
8.027e-08
1.071e-07
3.332e-07
5.716e-07
1.249e-06
1.722e-06
1.209e-06
7.484e-07
1.344e-06
7.093e-06
5.987e-05
0.0005827
0.002356
0.005345
0.00781
0.01282
0.01262
0.008377
0.006958
0.006755
0.005299
0.005393
0.006
0.006158
0.008697
0.01522
0.02307
0.03978
0.05431
0.0865
0.143
0.3226
0.5279
0.6322
0.7018
0.7853
0.8543
0.9054
0.9257
0.9286
0.9064
0.8877
0.8618
0.862
0.8629
0.8974
0.9211
0.9318
0.9099
0.8504
0.7214
0.4891
0.3409
0.231
0.1857
0.1325
0.1037
0.08113
0.07522
0.05683
0.04481
0.02674
0.01345
0.00561
0.004709
0.004085
0.005272
0.005497
0.005677
0.004168
0.003721
0.003609
0.003777
0.004112
0.004484
0.004858
0.005272
0.00589
0.006981
0.009209
0.01304
0.01908
0.02901
0.04323
0.05998
0.08051
0.1166
0.1745
0.2753
0.3862
0.4714
0.5597
0.6694
0.7641
0.8383
0.8757
0.9068
0.9376
0.9669
0.982
0.9917
0.9958
0.9985
0.9994
0.9999
1
1
1
1
1
1
1
0.000207
7.497e-05
4.419e-05
3.352e-05
4.377e-05
6.678e-05
0.000112
6.819e-05
3.819e-05
2.482e-05
1.675e-05
2.16e-05
3.266e-05
0.0001149
0.0006282
0.001587
0.00139
0.0006433
0.0002515
0.0001756
0.0004142
0.001806
0.008325
0.02231
0.02781
0.01152
0.003452
0.001669
0.001494
0.002704
0.004692
0.004167
0.002346
0.00192
0.001627
0.002183
0.002782
0.003494
0.003469
0.000373
2.084e-05
9.487e-07
1.109e-07
6.605e-08
3.759e-07
6.178e-07
3.821e-07
1.753e-07
4.771e-08
2.555e-08
8.954e-08
3.077e-07
1.471e-06
2.821e-06
1.073e-06
2.921e-07
3.7e-07
2.117e-06
3.816e-05
0.0006431
0.002548
0.005078
0.004745
0.006167
0.005722
0.005224
0.005355
0.006656
0.007129
0.01089
0.01514
0.02141
0.03612
0.08217
0.1381
0.2771
0.5171
0.7299
0.8362
0.9069
0.9291
0.9252
0.9261
0.955
0.9782
0.9912
0.9954
0.996
0.9936
0.9908
0.9873
0.9888
0.9919
0.9954
0.9967
0.9973
0.9956
0.9898
0.9724
0.9251
0.8637
0.8165
0.7655
0.6572
0.4863
0.2994
0.2466
0.1561
0.1136
0.07113
0.03701
0.01986
0.0184
0.01212
0.01384
0.0152
0.01924
0.01851
0.02003
0.01839
0.01987
0.02326
0.02735
0.03181
0.03708
0.04517
0.05957
0.08475
0.1263
0.165
0.2194
0.2938
0.4002
0.5063
0.6322
0.7199
0.7926
0.832
0.8594
0.8891
0.9263
0.9584
0.9786
0.9871
0.9919
0.9951
0.9976
0.9988
0.9995
0.9997
0.9999
1
1
1
1
1
1
1
1
1
0.00011
4.52e-05
3.65e-05
4.525e-05
8.779e-05
0.0001412
0.0001048
3.982e-05
1.702e-05
1.338e-05
1.381e-05
3.256e-05
0.0001063
0.0005368
0.001425
0.002032
0.000607
7.567e-05
1.594e-05
1.114e-05
4.261e-05
0.0003035
0.003305
0.01481
0.02681
0.01444
0.007457
0.004067
0.003197
0.004813
0.005944
0.003246
0.001059
0.0004288
0.0003262
0.0004479
0.001009
0.002265
0.002816
0.0005145
4.005e-05
2.162e-06
3.407e-07
2.735e-07
1.134e-06
1.856e-06
1.337e-06
4.767e-07
9.331e-08
4.041e-08
1.283e-07
6.642e-07
6.161e-06
1.5e-05
5.284e-06
9.509e-07
9.035e-07
4.707e-06
8.283e-05
0.001581
0.005555
0.007089
0.005207
0.006221
0.007449
0.009454
0.01159
0.01482
0.01916
0.03255
0.05916
0.1278
0.2825
0.5246
0.639
0.7488
0.8518
0.9321
0.9659
0.984
0.9887
0.9886
0.9888
0.9942
0.9979
0.9995
0.9998
0.9998
0.9997
0.9996
0.9994
0.9995
0.9997
0.9999
0.9999
0.9999
0.9998
0.9995
0.9979
0.991
0.9745
0.9582
0.9455
0.9262
0.8903
0.8385
0.8084
0.7276
0.6367
0.4723
0.3644
0.2346
0.2333
0.1353
0.1042
0.09293
0.1246
0.1298
0.1505
0.135
0.1414
0.1606
0.1878
0.2278
0.2981
0.4027
0.519
0.6198
0.7097
0.7512
0.7906
0.8261
0.867
0.8993
0.9353
0.958
0.9743
0.9824
0.9871
0.9904
0.994
0.9968
0.9985
0.9992
0.9995
0.9997
0.9998
0.9999
1
1
1
1
1
1
1
1
1
1
1
1
4.938e-05
2.849e-05
3.347e-05
5.224e-05
8.201e-05
0.0001256
6.182e-05
2.815e-05
1.637e-05
3.218e-05
4.381e-05
0.0001742
0.0006698
0.001708
0.002287
0.002054
0.0003564
3.194e-05
5.22e-06
2.859e-06
1.295e-05
0.0002111
0.004062
0.01687
0.02601
0.01301
0.008372
0.005634
0.005594
0.007892
0.007413
0.003005
0.0006361
0.0002098
0.0001148
0.0001559
0.0004243
0.0009558
0.001105
0.000298
3.378e-05
4.242e-06
1.119e-06
1.013e-06
1.952e-06
2.012e-06
1.297e-06
3.309e-07
5.187e-08
2.457e-08
7.877e-08
8.57e-07
1.912e-05
0.000109
5.939e-05
1.02e-05
5.87e-06
2.079e-05
0.0002243
0.002662
0.007184
0.0076
0.005138
0.00597
0.008779
0.01639
0.0297
0.05685
0.1117
0.2198
0.4755
0.6568
0.7871
0.8519
0.8814
0.9146
0.9542
0.9841
0.995
0.9982
0.9987
0.9986
0.9986
0.9994
0.9999
1
1
1
1
1
1
1
1
1
1
1
1
0.9999
0.9998
0.9994
0.9984
0.9975
0.9966
0.9951
0.9917
0.9852
0.9779
0.9648
0.9577
0.9544
0.9536
0.951
0.9451
0.8961
0.815
0.6792
0.5924
0.5678
0.5984
0.6117
0.6606
0.7166
0.7656
0.8064
0.8416
0.875
0.9061
0.9301
0.9531
0.9657
0.976
0.9823
0.988
0.9915
0.9949
0.997
0.9984
0.999
0.9993
0.9995
0.9997
0.9998
0.9999
0.9999
1
1
1
1
1
1
1
1
1
1
1
1
1
1
1
1
4.458e-05
4.002e-05
4.865e-05
7.344e-05
9.774e-05
0.000127
5.348e-05
3.203e-05
3.67e-05
7.017e-05
0.00014
0.0005702
0.001457
0.002153
0.002562
0.001657
0.0004145
4.37e-05
7.254e-06
3.056e-06
1.166e-05
0.0001613
0.003094
0.0128
0.02422
0.01728
0.01646
0.01447
0.01506
0.01672
0.01266
0.005014
0.001453
0.0005055
0.0002321
0.0002401
0.0005417
0.0009495
0.0009628
0.0004067
0.0001062
2.238e-05
1.001e-05
7.32e-06
5.566e-06
4.92e-06
2.576e-06
1.23e-06
3.668e-07
2.946e-07
6.89e-07
4.087e-06
3.874e-05
0.0001317
9.387e-05
3.297e-05
3.429e-05
0.0001131
0.001125
0.006626
0.0114
0.01037
0.008694
0.0137
0.03098
0.07584
0.1642
0.3799
0.6076
0.7527
0.8489
0.9037
0.935
0.9501
0.9721
0.9869
0.9951
0.9989
0.9997
0.9998
0.9999
0.9999
0.9999
1
1
1
1
1
1
1
1
1
1
1
1
1
1
1
1
0.9999
0.9998
0.9998
0.9998
0.9997
0.9995
0.9991
0.9984
0.9977
0.9981
0.9989
0.9994
0.9996
0.9995
0.9984
0.9942
0.9778
0.9454
0.9149
0.9136
0.9215
0.9344
0.9489
0.9642
0.9761
0.984
0.9893
0.9926
0.9945
0.9964
0.9974
0.9984
0.9989
0.9993
0.9995
0.9997
0.9998
0.9999
0.9999
1
1
1
1
1
1
1
1
1
1
1
1
1
1
1
1
1
1
1
1
1
1
8.737e-05
9.767e-05
0.0001317
0.00014
0.0001468
0.0001485
9.089e-05
8.679e-05
0.0002137
0.0003
0.0005227
0.001064
0.001617
0.001493
0.001624
0.001372
0.0008695
0.0001402
2.941e-05
9.631e-06
2.574e-05
0.0002201
0.002741
0.008409
0.01333
0.01248
0.01642
0.02065
0.0242
0.02529
0.01961
0.01107
0.005306
0.002508
0.001119
0.0008877
0.001208
0.001632
0.001709
0.001267
0.000575
0.0002172
0.0001364
9.847e-05
4.74e-05
4.347e-05
2.954e-05
1.867e-05
7.086e-06
4.955e-06
4.997e-06
1.276e-05
4.062e-05
8.722e-05
8.321e-05
8.031e-05
0.000204
0.001152
0.007079
0.02085
0.0265
0.03079
0.04557
0.1067
0.3068
0.5698
0.6941
0.8098
0.881
0.9229
0.9561
0.9813
0.9901
0.9933
0.9972
0.9989
0.9996
0.9999
1
1
1
1
1
1
1
1
1
1
1
1
1
1
1
1
1
1
1
1
1
1
1
1
1
1
1
0.9999
0.9999
0.9998
0.9999
1
1
1
1
1
0.9998
0.999
0.9965
0.9926
0.9917
0.9931
0.9946
0.9963
0.9975
0.9984
0.9989
0.9993
0.9994
0.9996
0.9997
0.9998
0.9999
0.9999
0.9999
1
1
1
1
1
1
1
1
1
1
1
1
1
1
1
1
1
1
1
1
1
1
1
1
1
1
1
0.000345
0.000404
0.0005336
0.0002652
0.0002288
0.0001705
0.0002005
0.0004008
0.001274
0.0009852
0.001195
0.0007137
0.0008792
0.0005911
0.0007788
0.000527
0.0002246
2.421e-05
4.028e-06
1.362e-06
3.714e-06
3.267e-05
0.0004628
0.001556
0.003682
0.004669
0.006772
0.01099
0.01551
0.01632
0.01401
0.01034
0.008429
0.00626
0.003948
0.002877
0.003399
0.004002
0.004796
0.005554
0.0029
0.00159
0.00102
0.0008763
0.0004639
0.0005665
0.0004584
0.000357
0.0001735
0.000138
9.122e-05
9.412e-05
0.0001456
0.0002651
0.000399
0.0006163
0.001871
0.006498
0.02086
0.04276
0.07181
0.1183
0.2659
0.58
0.7714
0.8547
0.8984
0.9496
0.9755
0.9873
0.9937
0.9976
0.9988
0.9993
0.9997
0.9999
1
1
1
1
1
1
1
1
1
1
1
1
1
1
1
1
1
1
1
1
1
1
1
1
1
1
1
1
1
1
1
1
1
1
1
1
1
1
1
0.9999
0.9996
0.9992
0.9992
0.9994
0.9995
0.9997
0.9998
0.9998
0.9999
0.9999
0.9999
0.9999
1
1
1
1
1
1
1
1
1
1
1
1
1
1
1
1
1
1
1
1
1
1
1
1
1
1
1
1
1
1
1
1
0.0009379
0.001195
0.001854
0.0007033
0.0003723
0.0002181
0.0003891
0.001286
0.004078
0.002375
0.001867
0.0006814
0.0004206
0.000379
0.0003221
7.807e-05
2.221e-05
1.871e-06
2.804e-07
1.083e-07
4.196e-07
7.312e-06
0.0001566
0.0008527
0.002822
0.003111
0.005664
0.009212
0.01395
0.01443
0.01323
0.0112
0.01154
0.01199
0.01002
0.008894
0.01039
0.01122
0.01324
0.01711
0.009965
0.005903
0.00381
0.003817
0.002224
0.002145
0.001824
0.001776
0.00159
0.001677
0.001314
0.001133
0.001304
0.001513
0.002147
0.003919
0.009011
0.02546
0.0729
0.144
0.2923
0.5365
0.6982
0.8093
0.8843
0.9314
0.9644
0.9881
0.9955
0.9981
0.9991
0.9997
0.9999
0.9999
1
1
1
1
1
1
1
1
1
1
1
1
1
1
1
1
1
1
1
1
1
1
1
1
1
1
1
1
1
1
1
1
1
1
1
1
1
1
1
1
1
1
0.9999
0.9999
0.9999
0.9999
0.9999
1
1
1
1
1
1
1
1
1
1
1
1
1
1
1
1
1
1
1
1
1
1
1
1
1
1
1
1
1
1
1
1
1
1
1
1
1
1
1
0.001646
0.002517
0.004776
0.002089
0.0008056
0.0004996
0.001241
0.003705
0.007884
0.004125
0.002007
0.000864
0.0005397
0.0004707
0.000145
1.83e-05
3.108e-06
3.011e-07
7.462e-08
4.661e-08
3.416e-07
6.756e-06
0.0001347
0.0008718
0.00365
0.003617
0.005615
0.008761
0.01199
0.01134
0.01061
0.008873
0.01097
0.01305
0.01517
0.01617
0.02045
0.02003
0.02197
0.02545
0.01698
0.01267
0.009736
0.009328
0.00503
0.003716
0.002316
0.002196
0.002992
0.004866
0.005353
0.004678
0.005273
0.006184
0.01205
0.02327
0.05184
0.114
0.2845
0.5129
0.6835
0.8011
0.8916
0.9486
0.9809
0.9935
0.998
0.9994
0.9997
0.9998
0.9999
0.9999
0.9999
1
1
1
1
1
1
1
1
1
1
1
1
1
1
1
1
1
1
1
1
1
1
1
1
1
1
1
1
1
1
1
1
1
1
1
1
1
1
1
1
1
1
1
1
1
1
1
1
1
1
1
1
1
1
1
1
1
1
1
1
1
1
1
1
1
1
1
1
1
1
1
1
1
1
1
1
1
1
1
1
1
1
1
1
1
1
1
0.001257
0.002513
0.005922
0.00278
0.0009886
0.0008941
0.002477
0.01109
0.01629
0.007809
0.002461
0.0009558
0.0005123
0.0004485
5.272e-05
5.505e-06
1.209e-06
2.742e-07
1.208e-07
1.282e-07
1.253e-06
2.211e-05
0.0004763
0.002684
0.008204
0.005861
0.007293
0.008672
0.01078
0.01081
0.0109
0.01029
0.01471
0.0179
0.01803
0.01842
0.01992
0.01445
0.01101
0.01105
0.01014
0.01196
0.01607
0.01862
0.01106
0.005966
0.002395
0.00175
0.002096
0.00383
0.00598
0.008248
0.01512
0.02899
0.06035
0.1193
0.2536
0.4452
0.6339
0.7652
0.8605
0.9203
0.9684
0.9899
0.9972
0.9991
0.9997
0.9999
0.9999
0.9999
0.9999
0.9999
0.9999
1
1
1
1
1
0.9999
0.9999
0.9999
0.9999
1
1
1
1
1
1
1
1
0.9999
0.9999
1
0.9999
1
1
1
1
1
1
1
1
1
1
1
1
1
1
1
1
1
1
1
1
1
1
1
1
1
1
1
1
1
1
1
1
1
1
1
1
1
1
1
1
1
1
1
1
1
1
1
1
1
1
1
1
1
1
1
1
1
1
1
1
1
1
1
1
1
1
0.001794
0.003545
0.007191
0.003627
0.0009296
0.0009728
0.003229
0.01455
0.01698
0.006914
0.00214
0.0008553
0.0003298
0.0002594
3.112e-05
4.209e-06
2.172e-06
1.609e-06
1.299e-06
2.204e-06
1.82e-05
0.0001959
0.002372
0.009735
0.02219
0.01419
0.01488
0.0131
0.01227
0.01066
0.01058
0.01206
0.02006
0.02635
0.02406
0.02204
0.02017
0.01327
0.008738
0.0071
0.005647
0.00664
0.008962
0.01223
0.01035
0.008197
0.004355
0.003035
0.002773
0.004787
0.009028
0.01769
0.04117
0.09209
0.1954
0.4022
0.5833
0.702
0.8087
0.8832
0.9402
0.9764
0.9934
0.9983
0.9996
0.9998
0.9999
1
1
0.9999
0.9999
0.9999
0.9998
0.9999
0.9999
0.9999
0.9999
0.9998
0.9993
0.999
0.9994
0.9997
0.9999
0.9999
0.9998
0.9997
0.9997
0.9996
0.9995
0.9994
0.9993
0.9992
0.9993
0.9992
0.9994
0.9996
0.9997
0.9999
0.9999
0.9999
1
1
1
1
1
1
1
1
1
1
1
1
1
1
1
1
1
1
1
1
1
1
1
1
1
1
1
1
1
1
1
1
1
1
1
1
1
1
1
1
1
1
1
1
1
1
1
1
1
1
1
1
1
1
1
1
1
1
1
1
0.003
0.005636
0.01068
0.005734
0.001388
0.001453
0.003289
0.01133
0.01203
0.00521
0.001467
0.0007674
0.0004043
0.0002904
5.235e-05
1.405e-05
1.575e-05
2.853e-05
3.697e-05
6.609e-05
0.0003192
0.001498
0.006898
0.01677
0.02727
0.01861
0.01955
0.01621
0.01363
0.01053
0.01197
0.01721
0.03158
0.04575
0.03835
0.02973
0.01949
0.01131
0.006386
0.004484
0.003112
0.003633
0.005062
0.008416
0.0124
0.0154
0.01155
0.009533
0.008412
0.01106
0.01691
0.04315
0.1173
0.2942
0.5521
0.7203
0.8204
0.8861
0.9273
0.9576
0.9831
0.9948
0.9987
0.9997
0.9999
0.9999
1
1
1
0.9999
0.9999
0.9997
0.9996
0.9995
0.9996
0.9997
0.9994
0.9985
0.9959
0.9944
0.997
0.9983
0.9982
0.9978
0.9958
0.9914
0.9902
0.9874
0.9845
0.9846
0.9843
0.9822
0.9819
0.9821
0.9873
0.9921
0.9953
0.9978
0.9988
0.9992
0.9994
0.9997
0.9998
0.9999
0.9999
0.9999
0.9999
0.9999
1
1
1
1
1
1
0.9999
0.9999
1
1
1
1
1
1
1
1
1
1
1
1
1
1
1
1
1
1
1
1
1
1
1
1
1
1
1
1
1
1
1
1
1
1
1
1
1
1
1
1
1
1
1
1
0.006048
0.01048
0.01737
0.007538
0.001946
0.00167
0.00217
0.006628
0.009043
0.005287
0.002174
0.001933
0.001294
0.0009501
0.0002605
9.439e-05
0.0001132
0.0002602
0.0004566
0.001165
0.003199
0.005501
0.008193
0.009111
0.009232
0.009254
0.01618
0.01384
0.01175
0.008224
0.007798
0.009693
0.01927
0.03324
0.03456
0.03012
0.02067
0.01308
0.008785
0.006357
0.004268
0.004321
0.005476
0.008834
0.01705
0.02995
0.03196
0.0335
0.0332
0.0389
0.06769
0.1688
0.4537
0.6752
0.7966
0.8715
0.9217
0.9564
0.9791
0.9913
0.9973
0.9992
0.9997
0.9999
0.9999
0.9999
0.9999
0.9999
0.9999
0.9999
0.9998
0.9995
0.9989
0.9981
0.9981
0.998
0.9968
0.9926
0.9832
0.9786
0.9839
0.9847
0.9777
0.9589
0.9137
0.8641
0.8363
0.8148
0.7825
0.7757
0.7818
0.7891
0.7821
0.7962
0.8552
0.9078
0.9501
0.9735
0.9833
0.9872
0.9917
0.9955
0.9981
0.999
0.9995
0.9996
0.9997
0.9997
0.9999
1
1
1
1
1
0.9999
0.9999
1
1
1
1
1
1
1
1
1
1
1
1
1
1
1
1
1
1
1
1
1
1
1
1
1
1
1
1
1
1
1
1
1
1
1
1
1
1
1
1
1
1
1
1
0.008594
0.01421
0.02223
0.008971
0.00249
0.001219
0.000942
0.002976
0.006641
0.007154
0.004218
0.005781
0.004173
0.003098
0.001321
0.0006743
0.0008074
0.001928
0.002906
0.006039
0.01032
0.009597
0.007337
0.005405
0.005032
0.006378
0.01648
0.01463
0.01298
0.009271
0.007727
0.007327
0.01231
0.02282
0.03211
0.03745
0.03152
0.02312
0.01752
0.01307
0.008838
0.008433
0.009875
0.01391
0.02488
0.04669
0.06303
0.08758
0.1288
0.1885
0.3386
0.584
0.7532
0.8534
0.9097
0.9442
0.9705
0.9879
0.9961
0.9988
0.9996
0.9999
0.9999
0.9999
0.9999
0.9998
0.9997
0.9997
0.9998
0.9997
0.9996
0.9989
0.997
0.9933
0.9908
0.99
0.9846
0.9711
0.9468
0.9234
0.9089
0.8779
0.8111
0.7231
0.6312
0.6127
0.5764
0.5507
0.4844
0.4458
0.4336
0.4401
0.4508
0.4989
0.5442
0.5718
0.6424
0.6905
0.7269
0.7465
0.814
0.892
0.9515
0.9763
0.9887
0.9936
0.996
0.9975
0.999
0.9996
0.9998
0.9999
0.9999
0.9999
0.9999
0.9999
0.9999
1
1
1
1
1
1
1
1
1
1
1
1
1
1
1
1
1
1
1
1
1
1
1
1
1
1
1
1
1
1
1
1
1
1
1
1
1
1
1
1
0.9999
0.9999
0.9997
0.009274
0.01446
0.0237
0.00784
0.002388
0.0006373
0.0003761
0.001333
0.006429
0.01339
0.01326
0.01885
0.01328
0.009773
0.005294
0.003734
0.003023
0.00584
0.007048
0.01238
0.01548
0.01076
0.006868
0.00438
0.005721
0.009197
0.02456
0.02297
0.01919
0.01266
0.009369
0.006656
0.008284
0.01441
0.0256
0.04167
0.04936
0.03858
0.03178
0.02574
0.0206
0.02138
0.02428
0.03018
0.04592
0.07632
0.1156
0.1825
0.3354
0.5234
0.6825
0.8096
0.8863
0.9249
0.9552
0.9759
0.9911
0.9977
0.9995
0.9999
1
1
1
0.9999
0.9998
0.9997
0.9996
0.9994
0.9994
0.9993
0.9988
0.9961
0.989
0.9713
0.9482
0.9326
0.8987
0.8442
0.7821
0.7104
0.6509
0.5642
0.4543
0.3701
0.2784
0.2068
0.1611
0.144
0.1307
0.1302
0.1256
0.1186
0.1296
0.1483
0.1683
0.1692
0.2171
0.2748
0.3694
0.4333
0.5391
0.616
0.7188
0.8015
0.8567
0.8851
0.9234
0.951
0.9781
0.9901
0.9949
0.9973
0.9989
0.9994
0.9998
0.9999
0.9999
0.9999
1
1
1
1
1
1
1
1
1
1
1
1
1
1
1
1
1
1
1
1
1
1
1
1
1
1
1
1
1
1
1
1
1
1
1
1
1
0.9999
0.9997
0.9993
0.9983
0.9952
0.006653
0.009969
0.0188
0.008281
0.004646
0.000997
0.0004939
0.0009581
0.004688
0.008304
0.01204
0.01796
0.01726
0.01329
0.008301
0.007558
0.006068
0.009735
0.01399
0.01842
0.01713
0.01181
0.008092
0.005704
0.006122
0.008273
0.01893
0.0206
0.02244
0.01862
0.01383
0.007894
0.007457
0.009822
0.01838
0.03472
0.04787
0.03682
0.03232
0.03094
0.03229
0.04116
0.05118
0.0652
0.09288
0.1503
0.2483
0.429
0.6028
0.7374
0.8337
0.8975
0.9332
0.9533
0.9719
0.9872
0.9964
0.9994
0.9999
1
1
1
1
0.9998
0.9996
0.9993
0.999
0.9979
0.997
0.9951
0.9913
0.9771
0.9465
0.8838
0.813
0.7607
0.6819
0.5776
0.4737
0.3683
0.2521
0.1749
0.1179
0.08682
0.05608
0.03722
0.02712
0.02644
0.02828
0.03307
0.03037
0.02693
0.03283
0.04377
0.05664
0.0636
0.07507
0.08377
0.106
0.1279
0.1588
0.2007
0.3182
0.49
0.6212
0.6954
0.7697
0.8082
0.8456
0.8766
0.8982
0.9352
0.9772
0.9939
0.9992
0.9998
0.9999
0.9999
1
1
1
1
1
1
1
1
1
1
1
1
1
1
1
1
1
1
1
1
1
1
1
1
1
1
1
1
1
1
1
1
1
0.9999
0.9999
0.9997
0.9994
0.9986
0.9959
0.9869
0.9683
0.9298
0.005008
0.006705
0.01423
0.009252
0.008321
0.00159
0.0008174
0.0008399
0.002779
0.004865
0.00879
0.01255
0.01598
0.01475
0.008385
0.007219
0.006451
0.01101
0.02105
0.02564
0.02064
0.01482
0.01281
0.01141
0.01161
0.01153
0.0178
0.01866
0.02223
0.02225
0.01746
0.008922
0.00825
0.008935
0.01527
0.02705
0.03941
0.03251
0.03272
0.0347
0.04171
0.05884
0.07895
0.104
0.1582
0.266
0.4415
0.6185
0.7549
0.8453
0.9003
0.9324
0.9542
0.9705
0.9848
0.9939
0.9983
0.9996
0.9999
1
1
1
0.9999
0.9995
0.9986
0.9974
0.9944
0.9855
0.9721
0.9538
0.9335
0.8976
0.829
0.7181
0.5917
0.4898
0.3581
0.2072
0.1183
0.07636
0.0393
0.02646
0.01997
0.01526
0.01005
0.007965
0.005393
0.005745
0.007523
0.009283
0.008681
0.008104
0.01087
0.01733
0.02682
0.03646
0.04253
0.0442
0.05336
0.06362
0.07157
0.08235
0.1015
0.1344
0.1854
0.2687
0.4069
0.5299
0.5773
0.6089
0.6449
0.7291
0.867
0.9644
0.9961
0.9994
0.9999
0.9999
1
1
1
1
1
1
1
1
1
1
1
1
1
1
1
1
1
1
1
1
1
1
1
1
1
1
1
1
1
1
0.9999
0.9998
0.9995
0.9986
0.9971
0.9936
0.9874
0.9703
0.9357
0.8751
0.8106
0.739
0.005368
0.00579
0.01368
0.009686
0.01023
0.002068
0.001067
0.0006725
0.001439
0.002693
0.00558
0.009271
0.01609
0.01761
0.008463
0.006515
0.007055
0.01365
0.01656
0.01293
0.007721
0.007217
0.01284
0.02377
0.02501
0.01647
0.01478
0.015
0.01947
0.02139
0.01981
0.01323
0.01292
0.01095
0.01294
0.01524
0.01827
0.01704
0.02521
0.03493
0.04744
0.06961
0.1018
0.1542
0.2871
0.4818
0.6325
0.7633
0.8548
0.9097
0.9408
0.9581
0.9797
0.9922
0.998
0.9995
0.9998
0.9999
1
1
1
0.9999
0.9995
0.9979
0.9934
0.9872
0.9735
0.9422
0.8982
0.8403
0.7741
0.6993
0.5742
0.4032
0.2384
0.1293
0.0698
0.03554
0.0191
0.01374
0.007949
0.006315
0.005101
0.004498
0.00299
0.003184
0.002466
0.002712
0.003208
0.003998
0.003794
0.003579
0.004756
0.008343
0.01371
0.02122
0.0272
0.029
0.03814
0.04685
0.05434
0.06351
0.07161
0.0818
0.08758
0.1008
0.1256
0.191
0.2708
0.3684
0.4985
0.6479
0.7853
0.926
0.9916
0.9991
0.9999
1
1
1
1
1
1
1
1
1
1
1
1
1
1
1
1
1
1
1
1
1
1
1
1
1
1
0.9999
0.9998
0.9996
0.9993
0.9986
0.997
0.9927
0.9849
0.9658
0.9356
0.8889
0.8359
0.7657
0.6987
0.6073
0.4834
0.3405
0.005623
0.005437
0.01526
0.01054
0.009954
0.002232
0.001049
0.00068
0.001554
0.002628
0.003772
0.00582
0.01235
0.01682
0.007507
0.00545
0.005127
0.0091
0.009687
0.008693
0.004206
0.004392
0.009084
0.02764
0.03355
0.02156
0.01621
0.01462
0.01895