/*--------------------------------*- C++ -*----------------------------------*\
| =========                 |                                                 |
| \\      /  F ield         | OpenFOAM: The Open Source CFD Toolbox           |
|  \\    /   O peration     | Version:  5.x                                   |
|   \\  /    A nd           | Web:      www.OpenFOAM.org                      |
|    \\/     M anipulation  |                                                 |
\*---------------------------------------------------------------------------*/
FoamFile
{
    version     2.0;
    format      ascii;
    class       volVectorField;
    location    "115";
    object      U;
}
// * * * * * * * * * * * * * * * * * * * * * * * * * * * * * * * * * * * * * //

dimensions      [0 1 -1 0 0 0 0];

internalField   nonuniform List<vector> 
86400
(
(3.844e-07 -3.844e-07 0)
(1.183e-06 -3.921e-07 0)
(1.987e-06 -3.931e-07 0)
(2.795e-06 -3.939e-07 0)
(3.606e-06 -3.951e-07 0)
(4.42e-06 -3.968e-07 0)
(5.236e-06 -3.988e-07 0)
(6.056e-06 -4.017e-07 0)
(6.884e-06 -4.044e-07 0)
(7.706e-06 -4.069e-07 0)
(8.549e-06 -4.092e-07 0)
(9.381e-06 -4.074e-07 0)
(1.023e-05 -4.031e-07 0)
(1.104e-05 -4.08e-07 0)
(1.19e-05 -4.283e-07 0)
(1.273e-05 -4.448e-07 0)
(1.363e-05 -4.427e-07 0)
(1.468e-05 -3.986e-07 0)
(1.557e-05 -2.733e-07 0)
(1.609e-05 -2.644e-07 0)
(1.68e-05 -3.797e-07 0)
(1.766e-05 -4.406e-07 0)
(1.9e-05 -4.242e-07 0)
(2.005e-05 -4.04e-07 0)
(2.066e-05 -3.95e-07 0)
(2.207e-05 -2.888e-07 0)
(2.209e-05 -1.032e-07 0)
(2.226e-05 -5.536e-09 0)
(2.219e-05 -1.129e-07 0)
(2.273e-05 -3.438e-07 0)
(2.348e-05 -4.622e-07 0)
(2.478e-05 -5.728e-07 0)
(2.623e-05 -7.095e-07 0)
(2.806e-05 -8.025e-07 0)
(2.978e-05 -7.818e-07 0)
(3.235e-05 -6.558e-07 0)
(3.377e-05 -4.046e-07 0)
(3.514e-05 -2.125e-07 0)
(3.471e-05 -6.1e-08 0)
(3.531e-05 3.81e-08 0)
(3.45e-05 1.044e-07 0)
(3.477e-05 1.35e-07 0)
(3.466e-05 -1.017e-07 0)
(3.486e-05 -6.773e-07 0)
(3.696e-05 -1.206e-06 0)
(3.991e-05 -1.463e-06 0)
(4.37e-05 -1.46e-06 0)
(4.631e-05 -1.067e-06 0)
(4.896e-05 -5.899e-07 0)
(4.924e-05 -4.15e-07 0)
(5.058e-05 -5.136e-07 0)
(5.219e-05 -5.648e-07 0)
(5.386e-05 -6.844e-07 0)
(5.643e-05 -1.212e-06 0)
(5.925e-05 -1.826e-06 0)
(6.332e-05 -2.05e-06 0)
(6.733e-05 -1.707e-06 0)
(6.936e-05 -7.626e-07 0)
(6.902e-05 4.003e-07 0)
(6.787e-05 1.056e-06 0)
(6.452e-05 9.138e-07 0)
(6.406e-05 4.473e-07 0)
(6.307e-05 -1.284e-07 0)
(6.355e-05 -7.03e-07 0)
(6.534e-05 -7.946e-07 0)
(6.811e-05 -4.817e-07 0)
(6.841e-05 -1.391e-07 0)
(7.007e-05 3.986e-08 0)
(6.85e-05 3.14e-08 0)
(6.835e-05 -3.819e-07 0)
(7.061e-05 -1.297e-06 0)
(7.616e-05 -2.363e-06 0)
(8.139e-05 -2.464e-06 0)
(8.399e-05 -1.356e-06 0)
(8.395e-05 5.944e-07 0)
(8.145e-05 2.651e-06 0)
(7.499e-05 2.94e-06 0)
(7.196e-05 1.687e-06 0)
(7.126e-05 2.867e-07 0)
(7.144e-05 -6.454e-07 0)
(7.364e-05 -1.05e-06 0)
(7.517e-05 -7.187e-07 0)
(7.618e-05 -4.24e-07 0)
(7.781e-05 -3.877e-07 0)
(8.134e-05 -5.706e-07 0)
(8.318e-05 -8.033e-07 0)
(8.696e-05 -1.013e-06 0)
(8.874e-05 -1.07e-06 0)
(9.243e-05 -8.337e-07 0)
(9.612e-05 -7.548e-07 0)
(9.647e-05 -1.077e-06 0)
(0.0001025 -2.063e-06 0)
(0.0001085 -3.157e-06 0)
(0.0001198 -3.756e-06 0)
(0.0001269 -3.438e-06 0)
(0.0001346 -2.559e-06 0)
(0.0001342 -1.396e-06 0)
(0.000136 -4.33e-07 0)
(0.0001359 6.368e-07 0)
(0.0001325 2.683e-06 0)
(0.0001258 5.187e-06 0)
(0.0001122 6.446e-06 0)
(9.961e-05 5.432e-06 0)
(8.899e-05 2.755e-06 0)
(8.259e-05 5.958e-07 0)
(8.14e-05 2.004e-07 0)
(8.106e-05 1.351e-06 0)
(7.921e-05 3.344e-06 0)
(6.78e-05 3.836e-06 0)
(5.832e-05 2.361e-06 0)
(5.198e-05 8.145e-07 0)
(5.025e-05 3.368e-07 0)
(4.97e-05 4.261e-07 0)
(4.9e-05 6.026e-07 0)
(4.741e-05 5.337e-07 0)
(4.624e-05 3.491e-07 0)
(4.58e-05 1.111e-07 0)
(4.573e-05 4.508e-08 0)
(4.577e-05 1.769e-07 0)
(4.528e-05 3.944e-07 0)
(4.412e-05 5.97e-07 0)
(4.245e-05 6.681e-07 0)
(4.076e-05 5.95e-07 0)
(3.914e-05 5.339e-07 0)
(3.771e-05 5.301e-07 0)
(3.645e-05 4.714e-07 0)
(3.527e-05 3.673e-07 0)
(3.434e-05 2.884e-07 0)
(3.364e-05 2.22e-07 0)
(3.313e-05 1.404e-07 0)
(3.25e-05 6.269e-08 0)
(3.274e-05 -7.065e-08 0)
(3.31e-05 -1.953e-07 0)
(3.355e-05 -2.254e-07 0)
(3.412e-05 -3.212e-07 0)
(3.483e-05 -4.029e-07 0)
(3.537e-05 -3.461e-07 0)
(3.673e-05 -1.664e-07 0)
(3.59e-05 3.758e-08 0)
(3.511e-05 1.81e-07 0)
(3.486e-05 1.917e-07 0)
(3.456e-05 1.261e-07 0)
(3.438e-05 1.209e-07 0)
(3.426e-05 6.606e-08 0)
(3.429e-05 -1.108e-07 0)
(3.463e-05 -3.057e-07 0)
(3.549e-05 -4.392e-07 0)
(3.648e-05 -4.959e-07 0)
(3.765e-05 -6.231e-07 0)
(3.924e-05 -8.912e-07 0)
(4.164e-05 -1.353e-06 0)
(4.493e-05 -1.534e-06 0)
(4.823e-05 -7.753e-07 0)
(4.861e-05 1.478e-06 0)
(4.465e-05 4.932e-06 0)
(4.358e-05 1.64e-05 0)
(0.0001287 3.634e-05 0)
(0.0003986 -6.212e-05 0)
(0.003103 -0.001105 0)
(0.01035 -0.006238 0)
(3.92e-07 -1.183e-06 0)
(1.228e-06 -1.229e-06 0)
(2.063e-06 -1.231e-06 0)
(2.902e-06 -1.233e-06 0)
(3.744e-06 -1.236e-06 0)
(4.588e-06 -1.241e-06 0)
(5.431e-06 -1.245e-06 0)
(6.275e-06 -1.25e-06 0)
(7.119e-06 -1.255e-06 0)
(7.962e-06 -1.263e-06 0)
(8.823e-06 -1.273e-06 0)
(9.689e-06 -1.278e-06 0)
(1.059e-05 -1.281e-06 0)
(1.15e-05 -1.305e-06 0)
(1.244e-05 -1.348e-06 0)
(1.328e-05 -1.381e-06 0)
(1.424e-05 -1.425e-06 0)
(1.556e-05 -1.485e-06 0)
(1.708e-05 -1.424e-06 0)
(1.922e-05 -1.532e-06 0)
(2.079e-05 -1.752e-06 0)
(2.215e-05 -1.804e-06 0)
(2.387e-05 -1.769e-06 0)
(2.577e-05 -1.767e-06 0)
(2.7e-05 -1.537e-06 0)
(2.823e-05 -8.788e-07 0)
(2.828e-05 -1.435e-07 0)
(2.812e-05 2.421e-07 0)
(2.805e-05 -9.181e-08 0)
(2.811e-05 -9.432e-07 0)
(2.897e-05 -1.489e-06 0)
(3.073e-05 -2.03e-06 0)
(3.302e-05 -2.825e-06 0)
(3.617e-05 -3.562e-06 0)
(3.957e-05 -4.02e-06 0)
(4.453e-05 -3.95e-06 0)
(4.814e-05 -3.044e-06 0)
(5.188e-05 -2.045e-06 0)
(5.247e-05 -9.194e-07 0)
(5.391e-05 1.998e-07 0)
(5.225e-05 9.947e-07 0)
(5.182e-05 1.205e-06 0)
(5.096e-05 4.917e-07 0)
(4.98e-05 -1.631e-06 0)
(5.025e-05 -3.676e-06 0)
(5.296e-05 -4.569e-06 0)
(5.587e-05 -4.447e-06 0)
(5.817e-05 -3.453e-06 0)
(6.123e-05 -2.286e-06 0)
(6.28e-05 -2.292e-06 0)
(6.596e-05 -3.422e-06 0)
(7.014e-05 -4.096e-06 0)
(7.438e-05 -4.183e-06 0)
(7.838e-05 -4.144e-06 0)
(7.675e-05 -3.536e-06 0)
(7.425e-05 -2.717e-06 0)
(7.132e-05 -1.683e-06 0)
(6.859e-05 3.767e-08 0)
(6.583e-05 1.891e-06 0)
(6.53e-05 3.101e-06 0)
(6.248e-05 2.882e-06 0)
(6.148e-05 1.808e-06 0)
(5.967e-05 3.103e-07 0)
(5.949e-05 -1.654e-06 0)
(6.053e-05 -3.132e-06 0)
(6.615e-05 -3.445e-06 0)
(6.985e-05 -2.804e-06 0)
(7.536e-05 -2.003e-06 0)
(7.646e-05 -1.353e-06 0)
(7.851e-05 -2.33e-06 0)
(8.171e-05 -5.021e-06 0)
(8.739e-05 -6.813e-06 0)
(8.63e-05 -4.649e-06 0)
(8.422e-05 -7.99e-07 0)
(7.941e-05 2.959e-06 0)
(7.862e-05 5.582e-06 0)
(7.979e-05 4.763e-06 0)
(8.613e-05 1.355e-06 0)
(9.135e-05 -1.231e-06 0)
(9.405e-05 -2.578e-06 0)
(9.577e-05 -3.434e-06 0)
(9.704e-05 -3.331e-06 0)
(0.0001024 -3.571e-06 0)
(0.0001078 -4.184e-06 0)
(0.0001178 -5.111e-06 0)
(0.0001245 -5.799e-06 0)
(0.0001338 -6.126e-06 0)
(0.0001382 -6.486e-06 0)
(0.0001461 -7.026e-06 0)
(0.0001549 -7.495e-06 0)
(0.0001602 -9.373e-06 0)
(0.000171 -1.263e-05 0)
(0.000178 -1.295e-05 0)
(0.0001807 -9.878e-06 0)
(0.0001777 -5.824e-06 0)
(0.0001735 -1.433e-06 0)
(0.0001634 1.44e-06 0)
(0.0001587 2.104e-06 0)
(0.0001557 3.58e-06 0)
(0.000151 7.447e-06 0)
(0.00015 1.24e-05 0)
(0.0001478 1.632e-05 0)
(0.0001479 1.619e-05 0)
(0.0001429 1.11e-05 0)
(0.0001306 5.189e-06 0)
(0.0001228 2.532e-06 0)
(0.0001219 4.67e-06 0)
(0.000121 1.109e-05 0)
(0.0001127 1.505e-05 0)
(0.0001005 1.236e-05 0)
(8.281e-05 6.672e-06 0)
(7.403e-05 3.319e-06 0)
(7.001e-05 2.188e-06 0)
(6.877e-05 2.316e-06 0)
(6.595e-05 1.995e-06 0)
(6.42e-05 1.01e-06 0)
(6.432e-05 -3.194e-07 0)
(6.554e-05 -9.477e-07 0)
(6.76e-05 -5.628e-07 0)
(6.872e-05 6.479e-07 0)
(6.823e-05 2.142e-06 0)
(6.608e-05 2.945e-06 0)
(6.338e-05 2.852e-06 0)
(6.03e-05 2.623e-06 0)
(5.776e-05 2.51e-06 0)
(5.573e-05 2.3e-06 0)
(5.332e-05 1.955e-06 0)
(5.122e-05 1.645e-06 0)
(4.938e-05 1.393e-06 0)
(4.779e-05 1.093e-06 0)
(4.584e-05 5.741e-07 0)
(4.604e-05 -2.101e-07 0)
(4.601e-05 -8.801e-07 0)
(4.679e-05 -9.756e-07 0)
(4.734e-05 -7.974e-07 0)
(4.66e-05 -4.122e-07 0)
(4.511e-05 1.719e-07 0)
(4.418e-05 8.758e-07 0)
(4.103e-05 1.247e-06 0)
(3.864e-05 1.093e-06 0)
(3.812e-05 7.665e-07 0)
(3.747e-05 4.75e-07 0)
(3.719e-05 3.552e-07 0)
(3.735e-05 1.532e-07 0)
(3.751e-05 -3.786e-07 0)
(3.791e-05 -1.023e-06 0)
(3.9e-05 -1.484e-06 0)
(4.016e-05 -1.641e-06 0)
(4.164e-05 -2.053e-06 0)
(4.339e-05 -3.011e-06 0)
(4.68e-05 -5.31e-06 0)
(5.345e-05 -7.351e-06 0)
(6.391e-05 -6.844e-06 0)
(8.25e-05 -1.255e-06 0)
(0.0001607 6.374e-07 0)
(0.0005456 -6.894e-05 0)
(0.001904 -0.0006516 0)
(0.005765 -0.003222 0)
(0.01161 -0.007508 0)
(0.01901 -0.01351 0)
(3.926e-07 -1.987e-06 0)
(1.23e-06 -2.064e-06 0)
(2.065e-06 -2.066e-06 0)
(2.904e-06 -2.068e-06 0)
(3.745e-06 -2.073e-06 0)
(4.586e-06 -2.079e-06 0)
(5.425e-06 -2.082e-06 0)
(6.262e-06 -2.086e-06 0)
(7.097e-06 -2.094e-06 0)
(7.941e-06 -2.111e-06 0)
(8.799e-06 -2.138e-06 0)
(9.684e-06 -2.172e-06 0)
(1.059e-05 -2.207e-06 0)
(1.156e-05 -2.26e-06 0)
(1.249e-05 -2.316e-06 0)
(1.341e-05 -2.443e-06 0)
(1.459e-05 -2.785e-06 0)
(1.651e-05 -3.307e-06 0)
(1.807e-05 -3.587e-06 0)
(2.052e-05 -3.783e-06 0)
(2.146e-05 -3.669e-06 0)
(2.258e-05 -3.692e-06 0)
(2.447e-05 -3.902e-06 0)
(2.695e-05 -3.972e-06 0)
(2.778e-05 -3.338e-06 0)
(3.016e-05 -2.394e-06 0)
(3.182e-05 -1.309e-06 0)
(3.374e-05 -6.338e-07 0)
(3.632e-05 -1.028e-06 0)
(3.839e-05 -2.555e-06 0)
(3.966e-05 -3.529e-06 0)
(4.3e-05 -4.356e-06 0)
(4.449e-05 -5.38e-06 0)
(4.551e-05 -6.266e-06 0)
(4.584e-05 -6.82e-06 0)
(4.72e-05 -6.642e-06 0)
(4.808e-05 -5.346e-06 0)
(5.044e-05 -3.838e-06 0)
(4.956e-05 -1.962e-06 0)
(5.139e-05 -1.797e-07 0)
(5.169e-05 1.123e-06 0)
(5.44e-05 1.64e-06 0)
(5.608e-05 9.096e-07 0)
(5.909e-05 -2.456e-06 0)
(6.063e-05 -6.309e-06 0)
(6.482e-05 -8.312e-06 0)
(6.86e-05 -8.378e-06 0)
(7.092e-05 -6.758e-06 0)
(7.314e-05 -4.673e-06 0)
(7.5e-05 -4.217e-06 0)
(7.32e-05 -5.047e-06 0)
(7.015e-05 -4.953e-06 0)
(6.688e-05 -4.058e-06 0)
(6.497e-05 -2.755e-06 0)
(6.142e-05 -1.202e-06 0)
(6.153e-05 -1.755e-07 0)
(6.042e-05 7.616e-07 0)
(5.888e-05 2.21e-06 0)
(5.702e-05 3.608e-06 0)
(5.66e-05 4.468e-06 0)
(5.516e-05 4.142e-06 0)
(5.498e-05 2.697e-06 0)
(5.475e-05 2.528e-07 0)
(5.699e-05 -3.061e-06 0)
(5.826e-05 -5.919e-06 0)
(6.162e-05 -7.129e-06 0)
(6.448e-05 -6.83e-06 0)
(6.921e-05 -5.708e-06 0)
(7.031e-05 -4e-06 0)
(7.29e-05 -3.964e-06 0)
(7.394e-05 -5.84e-06 0)
(7.321e-05 -5.789e-06 0)
(6.883e-05 -2.707e-06 0)
(6.974e-05 -3.149e-07 0)
(7.11e-05 1.204e-06 0)
(7.967e-05 1.162e-06 0)
(9.206e-05 -2.912e-06 0)
(0.000107 -8.195e-06 0)
(0.0001157 -8.423e-06 0)
(0.0001215 -6.535e-06 0)
(0.0001226 -6.239e-06 0)
(0.0001218 -7.455e-06 0)
(0.0001273 -1.061e-05 0)
(0.0001337 -1.402e-05 0)
(0.000148 -1.677e-05 0)
(0.0001557 -1.722e-05 0)
(0.0001661 -1.603e-05 0)
(0.0001709 -1.246e-05 0)
(0.0001674 -7.834e-06 0)
(0.0001582 -5.269e-06 0)
(0.0001453 -6.891e-06 0)
(0.0001379 -1.07e-05 0)
(0.0001304 -1.075e-05 0)
(0.0001352 -8.13e-06 0)
(0.0001384 -4.25e-06 0)
(0.0001431 1.477e-07 0)
(0.0001459 3.069e-06 0)
(0.0001506 3.981e-06 0)
(0.0001491 5.023e-06 0)
(0.0001489 6.566e-06 0)
(0.0001559 7.889e-06 0)
(0.0001656 1.155e-05 0)
(0.0001794 1.506e-05 0)
(0.0001827 1.434e-05 0)
(0.0001755 1.108e-05 0)
(0.0001693 7.436e-06 0)
(0.0001644 8.114e-06 0)
(0.0001674 1.711e-05 0)
(0.0001664 2.746e-05 0)
(0.000156 2.832e-05 0)
(0.0001369 2.051e-05 0)
(0.0001265 1.282e-05 0)
(0.0001162 7.668e-06 0)
(0.0001142 6.385e-06 0)
(0.0001093 5.297e-06 0)
(0.0001071 3.154e-06 0)
(0.0001034 4.398e-07 0)
(9.915e-05 -8.37e-07 0)
(9.548e-05 -2.754e-07 0)
(9.145e-05 1.612e-06 0)
(8.788e-05 3.978e-06 0)
(8.551e-05 5.579e-06 0)
(8.173e-05 5.638e-06 0)
(7.754e-05 5.287e-06 0)
(7.413e-05 4.979e-06 0)
(7.145e-05 4.682e-06 0)
(6.803e-05 4.277e-06 0)
(6.489e-05 3.896e-06 0)
(6.154e-05 3.484e-06 0)
(5.885e-05 2.941e-06 0)
(5.573e-05 1.935e-06 0)
(5.454e-05 6.031e-07 0)
(5.182e-05 -3.995e-07 0)
(4.942e-05 -6.819e-07 0)
(4.863e-05 -5.272e-07 0)
(4.772e-05 9.487e-08 0)
(4.762e-05 1.029e-06 0)
(4.831e-05 2.408e-06 0)
(4.692e-05 3.388e-06 0)
(4.447e-05 2.824e-06 0)
(4.367e-05 1.695e-06 0)
(4.299e-05 7.841e-07 0)
(4.338e-05 1.909e-07 0)
(4.469e-05 -1.287e-07 0)
(4.574e-05 -6.898e-07 0)
(4.604e-05 -1.573e-06 0)
(4.693e-05 -2.391e-06 0)
(4.825e-05 -2.569e-06 0)
(5.09e-05 -3.114e-06 0)
(5.306e-05 -4.282e-06 0)
(6.095e-05 -8.772e-06 0)
(8.389e-05 -1.237e-05 0)
(0.0001529 -1.468e-05 0)
(0.000396 -5.934e-05 0)
(0.001318 -0.0004459 0)
(0.003811 -0.001895 0)
(0.008303 -0.005012 0)
(0.01381 -0.009212 0)
(0.0194 -0.01384 0)
(0.02489 -0.0193 0)
(3.927e-07 -2.793e-06 0)
(1.23e-06 -2.902e-06 0)
(2.065e-06 -2.905e-06 0)
(2.904e-06 -2.907e-06 0)
(3.743e-06 -2.911e-06 0)
(4.579e-06 -2.915e-06 0)
(5.409e-06 -2.915e-06 0)
(6.238e-06 -2.919e-06 0)
(7.067e-06 -2.93e-06 0)
(7.904e-06 -2.957e-06 0)
(8.746e-06 -2.997e-06 0)
(9.59e-06 -3.04e-06 0)
(1.042e-05 -3.083e-06 0)
(1.128e-05 -3.141e-06 0)
(1.211e-05 -3.217e-06 0)
(1.29e-05 -3.414e-06 0)
(1.379e-05 -3.886e-06 0)
(1.456e-05 -4.302e-06 0)
(1.479e-05 -4.338e-06 0)
(1.518e-05 -4.197e-06 0)
(1.549e-05 -4.079e-06 0)
(1.593e-05 -4.29e-06 0)
(1.7e-05 -4.782e-06 0)
(1.848e-05 -4.937e-06 0)
(1.947e-05 -4.533e-06 0)
(2.136e-05 -4.006e-06 0)
(2.343e-05 -3.207e-06 0)
(2.553e-05 -2.711e-06 0)
(2.912e-05 -3.559e-06 0)
(3.412e-05 -5.682e-06 0)
(3.651e-05 -6.948e-06 0)
(4.201e-05 -7.66e-06 0)
(4.467e-05 -7.654e-06 0)
(4.614e-05 -7.445e-06 0)
(4.585e-05 -7.466e-06 0)
(4.599e-05 -7.483e-06 0)
(4.587e-05 -6.46e-06 0)
(4.812e-05 -4.865e-06 0)
(4.684e-05 -3.113e-06 0)
(5.025e-05 -2.711e-06 0)
(5.448e-05 -3.363e-06 0)
(6.366e-05 -5.213e-06 0)
(7.512e-05 -6.936e-06 0)
(8.699e-05 -8.117e-06 0)
(8.061e-05 -7.735e-06 0)
(7.406e-05 -6.916e-06 0)
(6.537e-05 -5.724e-06 0)
(5.937e-05 -4.516e-06 0)
(5.609e-05 -3.436e-06 0)
(5.696e-05 -2.616e-06 0)
(5.4e-05 -2.023e-06 0)
(5.139e-05 -1.795e-06 0)
(5.058e-05 -1.613e-06 0)
(5.052e-05 -1.07e-06 0)
(4.925e-05 -4.699e-07 0)
(5.03e-05 7.942e-08 0)
(5.011e-05 1.061e-06 0)
(5.02e-05 2.543e-06 0)
(5.043e-05 4.004e-06 0)
(5.135e-05 4.866e-06 0)
(5.092e-05 4.356e-06 0)
(5.161e-05 2.451e-06 0)
(5.264e-05 -7.308e-07 0)
(5.467e-05 -4.718e-06 0)
(5.619e-05 -8.053e-06 0)
(5.952e-05 -9.578e-06 0)
(6.085e-05 -9.418e-06 0)
(6.342e-05 -8.65e-06 0)
(6.427e-05 -7.05e-06 0)
(6.852e-05 -6.435e-06 0)
(7.341e-05 -7.055e-06 0)
(7.382e-05 -5.439e-06 0)
(7.188e-05 -2.539e-06 0)
(7.512e-05 -2.268e-06 0)
(7.322e-05 -4.222e-06 0)
(8.278e-05 -8.782e-06 0)
(9.468e-05 -1.544e-05 0)
(0.0001046 -1.881e-05 0)
(0.0001042 -1.353e-05 0)
(0.0001077 -8.018e-06 0)
(0.0001047 -6.3e-06 0)
(0.0001033 -9.311e-06 0)
(0.0001074 -1.519e-05 0)
(0.000111 -1.953e-05 0)
(0.0001161 -2.117e-05 0)
(0.0001187 -2.128e-05 0)
(0.0001251 -1.999e-05 0)
(0.0001292 -1.292e-05 0)
(0.0001297 -3.441e-06 0)
(0.0001308 2.931e-07 0)
(0.0001333 -2.735e-06 0)
(0.00014 -9.62e-06 0)
(0.0001394 -1.316e-05 0)
(0.0001481 -1.231e-05 0)
(0.0001491 -8.157e-06 0)
(0.0001519 -4.641e-06 0)
(0.0001552 -2.587e-06 0)
(0.0001627 1.171e-06 0)
(0.0001603 3.388e-06 0)
(0.000164 2.288e-06 0)
(0.0001682 -1.241e-06 0)
(0.0001708 -2.369e-07 0)
(0.0001877 7.403e-06 0)
(0.0001927 1.635e-05 0)
(0.0001798 2.065e-05 0)
(0.0001705 1.832e-05 0)
(0.0001559 1.303e-05 0)
(0.0001584 1.62e-05 0)
(0.0001647 2.792e-05 0)
(0.0001745 3.497e-05 0)
(0.0001621 2.925e-05 0)
(0.0001596 2.226e-05 0)
(0.0001473 1.446e-05 0)
(0.0001464 9.77e-06 0)
(0.0001445 6.215e-06 0)
(0.0001491 4.023e-06 0)
(0.0001476 3.04e-06 0)
(0.0001432 3.98e-06 0)
(0.0001362 6.609e-06 0)
(0.0001284 9.199e-06 0)
(0.0001201 1.041e-05 0)
(0.0001179 1.178e-05 0)
(0.0001128 1.2e-05 0)
(0.0001072 1.148e-05 0)
(0.0001026 1.076e-05 0)
(9.908e-05 1.029e-05 0)
(9.449e-05 9.786e-06 0)
(9.018e-05 9.24e-06 0)
(8.617e-05 8.564e-06 0)
(8.227e-05 7.654e-06 0)
(7.782e-05 6.252e-06 0)
(7.486e-05 4.952e-06 0)
(6.843e-05 4.123e-06 0)
(6.302e-05 3.438e-06 0)
(5.806e-05 2.889e-06 0)
(5.272e-05 2.751e-06 0)
(4.948e-05 2.832e-06 0)
(4.731e-05 3.343e-06 0)
(4.706e-05 3.96e-06 0)
(4.796e-05 3.468e-06 0)
(4.871e-05 1.938e-06 0)
(4.943e-05 2.515e-07 0)
(5.119e-05 -1.342e-06 0)
(5.456e-05 -2.324e-06 0)
(6.034e-05 -3.178e-06 0)
(6.632e-05 -4.193e-06 0)
(7.321e-05 -6.288e-06 0)
(8.404e-05 -8.175e-06 0)
(0.0001098 -8.902e-06 0)
(0.000148 -7.669e-06 0)
(0.0002663 -1.956e-05 0)
(0.000555 -7.256e-05 0)
(0.001321 -0.0003382 0)
(0.003213 -0.001311 0)
(0.006929 -0.003612 0)
(0.01148 -0.006794 0)
(0.01639 -0.01046 0)
(0.02122 -0.01446 0)
(0.02565 -0.01869 0)
(0.02951 -0.02331 0)
(3.927e-07 -3.6e-06 0)
(1.232e-06 -3.743e-06 0)
(2.069e-06 -3.745e-06 0)
(2.908e-06 -3.745e-06 0)
(3.745e-06 -3.747e-06 0)
(4.575e-06 -3.745e-06 0)
(5.397e-06 -3.741e-06 0)
(6.22e-06 -3.744e-06 0)
(7.041e-06 -3.758e-06 0)
(7.87e-06 -3.79e-06 0)
(8.7e-06 -3.83e-06 0)
(9.519e-06 -3.864e-06 0)
(1.032e-05 -3.9e-06 0)
(1.111e-05 -3.95e-06 0)
(1.185e-05 -4.012e-06 0)
(1.252e-05 -4.16e-06 0)
(1.335e-05 -4.513e-06 0)
(1.361e-05 -4.623e-06 0)
(1.357e-05 -4.498e-06 0)
(1.372e-05 -4.483e-06 0)
(1.399e-05 -4.665e-06 0)
(1.438e-05 -5.13e-06 0)
(1.523e-05 -5.924e-06 0)
(1.632e-05 -6.3e-06 0)
(1.747e-05 -6.239e-06 0)
(1.928e-05 -6.273e-06 0)
(2.175e-05 -6.395e-06 0)
(2.548e-05 -7.018e-06 0)
(3.083e-05 -8.797e-06 0)
(3.47e-05 -1.017e-05 0)
(3.162e-05 -9.078e-06 0)
(3.188e-05 -8.582e-06 0)
(3.077e-05 -7.641e-06 0)
(3.059e-05 -6.96e-06 0)
(3.104e-05 -6.868e-06 0)
(3.168e-05 -7.061e-06 0)
(3.173e-05 -6.73e-06 0)
(3.446e-05 -6.328e-06 0)
(3.661e-05 -6.314e-06 0)
(4.249e-05 -8.001e-06 0)
(4.603e-05 -9.783e-06 0)
(4.959e-05 -1.111e-05 0)
(4.584e-05 -9.142e-06 0)
(4.401e-05 -5.411e-06 0)
(3.878e-05 -2.022e-06 0)
(3.818e-05 -1.055e-06 0)
(3.693e-05 -1.262e-06 0)
(3.737e-05 -2.179e-06 0)
(3.794e-05 -3.048e-06 0)
(4.065e-05 -3.067e-06 0)
(4.212e-05 -2.309e-06 0)
(4.371e-05 -2.001e-06 0)
(4.413e-05 -1.89e-06 0)
(4.553e-05 -1.525e-06 0)
(4.59e-05 -1.191e-06 0)
(4.78e-05 -8.281e-07 0)
(4.905e-05 4.749e-08 0)
(5.031e-05 1.186e-06 0)
(5.308e-05 2.57e-06 0)
(5.671e-05 3.888e-06 0)
(5.928e-05 3.252e-06 0)
(6.282e-05 3.858e-08 0)
(6.774e-05 -3.93e-06 0)
(7.096e-05 -7.454e-06 0)
(6.824e-05 -9.666e-06 0)
(6.408e-05 -9.167e-06 0)
(6.068e-05 -8.341e-06 0)
(5.801e-05 -8.525e-06 0)
(5.634e-05 -8.327e-06 0)
(5.808e-05 -8.075e-06 0)
(6.178e-05 -8.217e-06 0)
(6.065e-05 -6.113e-06 0)
(6.271e-05 -4.107e-06 0)
(6.714e-05 -5e-06 0)
(6.93e-05 -9.182e-06 0)
(7.441e-05 -1.626e-05 0)
(8.231e-05 -2.259e-05 0)
(8.309e-05 -2.183e-05 0)
(7.994e-05 -1.337e-05 0)
(8.322e-05 -5.843e-06 0)
(7.884e-05 -3.214e-06 0)
(7.762e-05 -9.115e-06 0)
(8.688e-05 -1.839e-05 0)
(0.0001018 -2.319e-05 0)
(0.0001187 -2.466e-05 0)
(0.0001344 -2.678e-05 0)
(0.0001486 -2.613e-05 0)
(0.0001514 -1.482e-05 0)
(0.0001478 -1.003e-06 0)
(0.0001443 6.075e-07 0)
(0.0001405 -8.365e-06 0)
(0.0001523 -2.051e-05 0)
(0.0001553 -2.473e-05 0)
(0.0001651 -1.942e-05 0)
(0.0001595 -1.101e-05 0)
(0.000162 -5.022e-06 0)
(0.0001489 -3.156e-06 0)
(0.000148 2.431e-06 0)
(0.0001424 7.751e-06 0)
(0.000135 1.102e-05 0)
(0.000118 7.93e-06 0)
(9.874e-05 4.85e-06 0)
(9.256e-05 5.278e-06 0)
(9.6e-05 9.492e-06 0)
(0.0001014 1.359e-05 0)
(0.00012 1.604e-05 0)
(0.0001282 1.436e-05 0)
(0.0001289 1.424e-05 0)
(0.000133 1.912e-05 0)
(0.0001588 2.787e-05 0)
(0.0001579 2.922e-05 0)
(0.0001678 2.855e-05 0)
(0.0001612 2.351e-05 0)
(0.0001613 1.87e-05 0)
(0.0001485 1.431e-05 0)
(0.000138 1.357e-05 0)
(0.0001203 1.454e-05 0)
(0.0001053 1.56e-05 0)
(9.1e-05 1.569e-05 0)
(8.595e-05 1.602e-05 0)
(7.905e-05 1.494e-05 0)
(7.65e-05 1.485e-05 0)
(7.27e-05 1.467e-05 0)
(6.951e-05 1.391e-05 0)
(6.716e-05 1.288e-05 0)
(6.555e-05 1.218e-05 0)
(6.393e-05 1.163e-05 0)
(6.258e-05 1.104e-05 0)
(6.145e-05 1.045e-05 0)
(6.015e-05 9.944e-06 0)
(5.838e-05 9.494e-06 0)
(5.556e-05 9.312e-06 0)
(5.03e-05 8.939e-06 0)
(4.645e-05 8.056e-06 0)
(4.218e-05 6.588e-06 0)
(4e-05 5.216e-06 0)
(3.939e-05 3.994e-06 0)
(4.053e-05 3.126e-06 0)
(4.185e-05 2.56e-06 0)
(4.458e-05 1.656e-06 0)
(4.698e-05 4.406e-08 0)
(4.977e-05 -2.413e-06 0)
(5.43e-05 -6.123e-06 0)
(6.278e-05 -1.036e-05 0)
(8.046e-05 -1.42e-05 0)
(0.0001046 -1.536e-05 0)
(0.0001453 -1.85e-05 0)
(0.0002264 -2.655e-05 0)
(0.0004365 -4.345e-05 0)
(0.0008562 -0.0001232 0)
(0.001867 -0.0004436 0)
(0.003717 -0.001242 0)
(0.006838 -0.002902 0)
(0.01083 -0.005412 0)
(0.01515 -0.00834 0)
(0.01946 -0.0115 0)
(0.02359 -0.01491 0)
(0.02735 -0.01848 0)
(0.03061 -0.02217 0)
(0.03328 -0.02605 0)
(3.929e-07 -4.409e-06 0)
(1.236e-06 -4.587e-06 0)
(2.075e-06 -4.587e-06 0)
(2.916e-06 -4.585e-06 0)
(3.748e-06 -4.578e-06 0)
(4.573e-06 -4.569e-06 0)
(5.391e-06 -4.56e-06 0)
(6.208e-06 -4.562e-06 0)
(7.022e-06 -4.575e-06 0)
(7.849e-06 -4.61e-06 0)
(8.68e-06 -4.651e-06 0)
(9.483e-06 -4.668e-06 0)
(1.027e-05 -4.688e-06 0)
(1.104e-05 -4.719e-06 0)
(1.178e-05 -4.758e-06 0)
(1.241e-05 -4.826e-06 0)
(1.312e-05 -4.929e-06 0)
(1.33e-05 -4.781e-06 0)
(1.336e-05 -4.58e-06 0)
(1.341e-05 -4.592e-06 0)
(1.355e-05 -4.991e-06 0)
(1.375e-05 -5.644e-06 0)
(1.472e-05 -6.877e-06 0)
(1.554e-05 -7.442e-06 0)
(1.651e-05 -7.556e-06 0)
(1.753e-05 -7.804e-06 0)
(1.846e-05 -8.163e-06 0)
(1.906e-05 -8.562e-06 0)
(2.103e-05 -9.454e-06 0)
(2.162e-05 -8.923e-06 0)
(2.072e-05 -7.61e-06 0)
(2.14e-05 -7.505e-06 0)
(2.187e-05 -7.373e-06 0)
(2.264e-05 -7.41e-06 0)
(2.416e-05 -7.775e-06 0)
(2.553e-05 -8.025e-06 0)
(2.589e-05 -7.879e-06 0)
(2.692e-05 -7.91e-06 0)
(2.775e-05 -8.369e-06 0)
(2.839e-05 -8.975e-06 0)
(2.744e-05 -8.711e-06 0)
(2.654e-05 -7.712e-06 0)
(2.497e-05 -5.931e-06 0)
(2.506e-05 -3.996e-06 0)
(2.625e-05 -2.403e-06 0)
(2.811e-05 -1.981e-06 0)
(2.973e-05 -2.294e-06 0)
(3.094e-05 -3.132e-06 0)
(3.146e-05 -3.9e-06 0)
(3.172e-05 -3.943e-06 0)
(3.218e-05 -3.416e-06 0)
(3.313e-05 -2.983e-06 0)
(3.424e-05 -2.752e-06 0)
(3.548e-05 -2.514e-06 0)
(3.673e-05 -2.316e-06 0)
(3.796e-05 -2.107e-06 0)
(3.936e-05 -1.765e-06 0)
(4.131e-05 -1.642e-06 0)
(4.457e-05 -1.469e-06 0)
(4.947e-05 -5.895e-07 0)
(5.545e-05 -4.118e-07 0)
(5.833e-05 -2.61e-06 0)
(5.599e-05 -4.463e-06 0)
(5.471e-05 -5.093e-06 0)
(5.233e-05 -5.853e-06 0)
(4.993e-05 -5.732e-06 0)
(5.308e-05 -6.368e-06 0)
(5.582e-05 -8.453e-06 0)
(5.678e-05 -9.886e-06 0)
(6.04e-05 -1.018e-05 0)
(6.651e-05 -1.026e-05 0)
(6.367e-05 -8.027e-06 0)
(6.493e-05 -5.978e-06 0)
(6.573e-05 -6.296e-06 0)
(6.139e-05 -9.407e-06 0)
(5.953e-05 -1.556e-05 0)
(5.769e-05 -1.971e-05 0)
(5.997e-05 -2.207e-05 0)
(6.534e-05 -1.689e-05 0)
(7.792e-05 -9.454e-06 0)
(8.837e-05 -7.611e-06 0)
(0.0001193 -2.302e-05 0)
(0.0001776 -4.687e-05 0)
(0.0002551 -5.615e-05 0)
(0.0003361 -4.94e-05 0)
(0.0004066 -4.192e-05 0)
(0.0004518 -3.027e-05 0)
(0.0004616 -9.16e-06 0)
(0.0004679 6.687e-06 0)
(0.000481 2.139e-06 0)
(0.0004573 -8.625e-06 0)
(0.0003964 -1.471e-05 0)
(0.0002847 -1.204e-05 0)
(0.0002104 -2.274e-06 0)
(0.0001374 6.244e-06 0)
(0.000102 9.698e-06 0)
(7.428e-05 5.7e-06 0)
(7.152e-05 5.95e-06 0)
(6.734e-05 8.908e-06 0)
(6.999e-05 1.546e-05 0)
(6.751e-05 1.511e-05 0)
(6.243e-05 1.273e-05 0)
(5.833e-05 7.861e-06 0)
(5.876e-05 6.178e-06 0)
(5.923e-05 5.832e-06 0)
(6.521e-05 7.084e-06 0)
(6.505e-05 8.725e-06 0)
(6.625e-05 1.04e-05 0)
(6.876e-05 1.247e-05 0)
(7.275e-05 1.65e-05 0)
(7.067e-05 1.857e-05 0)
(7.603e-05 1.981e-05 0)
(7.647e-05 1.925e-05 0)
(7.988e-05 1.955e-05 0)
(7.64e-05 1.966e-05 0)
(7.309e-05 2.09e-05 0)
(6.754e-05 2.208e-05 0)
(6.35e-05 2.233e-05 0)
(5.894e-05 2.102e-05 0)
(5.661e-05 1.998e-05 0)
(5.223e-05 1.831e-05 0)
(4.927e-05 1.732e-05 0)
(4.636e-05 1.636e-05 0)
(4.438e-05 1.509e-05 0)
(4.297e-05 1.37e-05 0)
(4.2e-05 1.255e-05 0)
(4.148e-05 1.168e-05 0)
(4.132e-05 1.092e-05 0)
(4.145e-05 1.027e-05 0)
(4.175e-05 9.968e-06 0)
(4.2e-05 1.02e-05 0)
(4.197e-05 1.086e-05 0)
(4.09e-05 1.123e-05 0)
(4.025e-05 1.081e-05 0)
(3.824e-05 8.884e-06 0)
(3.738e-05 6.312e-06 0)
(3.703e-05 3.623e-06 0)
(3.913e-05 1.367e-06 0)
(4.18e-05 2.675e-07 0)
(4.673e-05 -8.978e-07 0)
(5.201e-05 -2.214e-06 0)
(5.97e-05 -4.266e-06 0)
(7.554e-05 -8.441e-06 0)
(0.0001136 -1.479e-05 0)
(0.0002078 -2.097e-05 0)
(0.0003864 -2.886e-05 0)
(0.0007483 -8.486e-05 0)
(0.001482 -0.0002862 0)
(0.002842 -0.0007436 0)
(0.00506 -0.001627 0)
(0.008215 -0.003058 0)
(0.01167 -0.004872 0)
(0.01546 -0.007098 0)
(0.01931 -0.009635 0)
(0.02304 -0.01239 0)
(0.02651 -0.01529 0)
(0.02965 -0.01832 0)
(0.03238 -0.02144 0)
(0.03464 -0.02461 0)
(0.03639 -0.02786 0)
(3.94e-07 -5.216e-06 0)
(1.242e-06 -5.434e-06 0)
(2.083e-06 -5.428e-06 0)
(2.921e-06 -5.42e-06 0)
(3.749e-06 -5.403e-06 0)
(4.574e-06 -5.389e-06 0)
(5.391e-06 -5.377e-06 0)
(6.21e-06 -5.377e-06 0)
(7.034e-06 -5.397e-06 0)
(7.887e-06 -5.448e-06 0)
(8.712e-06 -5.473e-06 0)
(9.478e-06 -5.458e-06 0)
(1.025e-05 -5.46e-06 0)
(1.102e-05 -5.481e-06 0)
(1.177e-05 -5.489e-06 0)
(1.244e-05 -5.464e-06 0)
(1.322e-05 -5.384e-06 0)
(1.376e-05 -5.042e-06 0)
(1.379e-05 -4.461e-06 0)
(1.378e-05 -4.213e-06 0)
(1.407e-05 -4.764e-06 0)
(1.389e-05 -5.585e-06 0)
(1.514e-05 -7.397e-06 0)
(1.518e-05 -8.173e-06 0)
(1.617e-05 -8.477e-06 0)
(1.7e-05 -8.733e-06 0)
(1.767e-05 -9.07e-06 0)
(1.786e-05 -9.508e-06 0)
(1.864e-05 -1.01e-05 0)
(1.87e-05 -9.531e-06 0)
(1.858e-05 -8.491e-06 0)
(1.923e-05 -8.382e-06 0)
(2.012e-05 -8.489e-06 0)
(2.118e-05 -8.762e-06 0)
(2.259e-05 -9.088e-06 0)
(2.368e-05 -8.991e-06 0)
(2.397e-05 -8.542e-06 0)
(2.446e-05 -8.476e-06 0)
(2.505e-05 -8.869e-06 0)
(2.538e-05 -9.151e-06 0)
(2.491e-05 -8.713e-06 0)
(2.456e-05 -7.87e-06 0)
(2.449e-05 -6.642e-06 0)
(2.515e-05 -5.365e-06 0)
(2.637e-05 -4.266e-06 0)
(2.786e-05 -3.777e-06 0)
(2.924e-05 -3.769e-06 0)
(3.03e-05 -4.065e-06 0)
(3.098e-05 -4.371e-06 0)
(3.143e-05 -4.422e-06 0)
(3.192e-05 -4.214e-06 0)
(3.255e-05 -3.981e-06 0)
(3.324e-05 -3.79e-06 0)
(3.402e-05 -3.602e-06 0)
(3.492e-05 -3.446e-06 0)
(3.599e-05 -3.375e-06 0)
(3.732e-05 -3.49e-06 0)
(3.88e-05 -4.023e-06 0)
(4.053e-05 -4.761e-06 0)
(4.267e-05 -4.89e-06 0)
(4.789e-05 -4.164e-06 0)
(5.213e-05 -3.606e-06 0)
(5.059e-05 -3.803e-06 0)
(5.223e-05 -4.997e-06 0)
(5.564e-05 -7.035e-06 0)
(5.393e-05 -7.905e-06 0)
(6.106e-05 -1.005e-05 0)
(6.618e-05 -1.284e-05 0)
(6.833e-05 -1.436e-05 0)
(6.854e-05 -1.358e-05 0)
(7.705e-05 -1.187e-05 0)
(6.785e-05 -7.027e-06 0)
(6.645e-05 -4.308e-06 0)
(6.464e-05 -3.253e-06 0)
(6.061e-05 -6.729e-06 0)
(6.389e-05 -1.567e-05 0)
(6.892e-05 -2.104e-05 0)
(9.119e-05 -2.643e-05 0)
(0.0001243 -1.336e-05 0)
(0.0001979 8.348e-06 0)
(0.0003239 6.303e-06 0)
(0.0005868 -3.889e-05 0)
(0.0009276 -0.000102 0)
(0.001268 -0.0001399 0)
(0.001672 -0.0001575 0)
(0.002068 -0.0001466 0)
(0.002364 -0.0001095 0)
(0.002567 -6.955e-05 0)
(0.002743 -3.167e-05 0)
(0.002846 3.148e-05 0)
(0.002621 0.0001128 0)
(0.002313 0.000176 0)
(0.001739 0.0001686 0)
(0.001273 0.0001223 0)
(0.0007661 5.778e-05 0)
(0.0004816 5.805e-06 0)
(0.0002542 -2.05e-05 0)
(0.0001746 -2.397e-05 0)
(0.000109 -8.583e-06 0)
(9.519e-05 9.937e-06 0)
(7.64e-05 1.681e-05 0)
(6.295e-05 1.811e-05 0)
(5.43e-05 1.052e-05 0)
(5.168e-05 6.602e-06 0)
(4.989e-05 5.661e-06 0)
(4.951e-05 7.682e-06 0)
(4.652e-05 1.075e-05 0)
(4.149e-05 1.132e-05 0)
(4.029e-05 1.214e-05 0)
(4.095e-05 1.408e-05 0)
(4.316e-05 1.65e-05 0)
(4.661e-05 1.801e-05 0)
(4.794e-05 1.842e-05 0)
(4.97e-05 1.912e-05 0)
(5.032e-05 2.026e-05 0)
(5.131e-05 2.248e-05 0)
(5.024e-05 2.413e-05 0)
(4.965e-05 2.473e-05 0)
(4.756e-05 2.347e-05 0)
(4.64e-05 2.252e-05 0)
(4.38e-05 2.127e-05 0)
(4.123e-05 2.009e-05 0)
(3.872e-05 1.852e-05 0)
(3.681e-05 1.659e-05 0)
(3.555e-05 1.474e-05 0)
(3.478e-05 1.317e-05 0)
(3.435e-05 1.191e-05 0)
(3.418e-05 1.082e-05 0)
(3.448e-05 9.754e-06 0)
(3.539e-05 9.132e-06 0)
(3.676e-05 9.238e-06 0)
(3.864e-05 9.814e-06 0)
(4.005e-05 1.055e-05 0)
(4.128e-05 1.059e-05 0)
(4.08e-05 8.372e-06 0)
(4.251e-05 4.949e-06 0)
(4.744e-05 9.859e-07 0)
(6.012e-05 -3.215e-06 0)
(8.336e-05 -4.159e-06 0)
(0.0001333 -2.365e-06 0)
(0.0002124 2e-06 0)
(0.0003504 2.124e-06 0)
(0.0006003 -2.543e-05 0)
(0.001073 -0.0001218 0)
(0.001923 -0.0003266 0)
(0.003242 -0.0006928 0)
(0.00526 -0.001345 0)
(0.007848 -0.002325 0)
(0.01065 -0.003562 0)
(0.01375 -0.005062 0)
(0.01701 -0.006722 0)
(0.02035 -0.008581 0)
(0.02368 -0.01072 0)
(0.02683 -0.01306 0)
(0.02972 -0.01554 0)
(0.0323 -0.01811 0)
(0.03455 -0.02077 0)
(0.03642 -0.02347 0)
(0.03789 -0.0262 0)
(0.03892 -0.02893 0)
(3.975e-07 -6.031e-06 0)
(1.251e-06 -6.289e-06 0)
(2.09e-06 -6.269e-06 0)
(2.926e-06 -6.253e-06 0)
(3.755e-06 -6.232e-06 0)
(4.584e-06 -6.215e-06 0)
(5.406e-06 -6.198e-06 0)
(6.24e-06 -6.21e-06 0)
(7.087e-06 -6.248e-06 0)
(7.928e-06 -6.284e-06 0)
(8.736e-06 -6.278e-06 0)
(9.463e-06 -6.223e-06 0)
(1.023e-05 -6.225e-06 0)
(1.102e-05 -6.256e-06 0)
(1.182e-05 -6.28e-06 0)
(1.265e-05 -6.294e-06 0)
(1.373e-05 -6.281e-06 0)
(1.515e-05 -6.057e-06 0)
(1.63e-05 -5.672e-06 0)
(1.892e-05 -5.853e-06 0)
(2.131e-05 -6.121e-06 0)
(1.962e-05 -5.952e-06 0)
(2.027e-05 -7.854e-06 0)
(1.629e-05 -7.92e-06 0)
(1.638e-05 -8.689e-06 0)
(1.692e-05 -9.208e-06 0)
(1.755e-05 -9.506e-06 0)
(1.773e-05 -9.747e-06 0)
(1.816e-05 -1.005e-05 0)
(1.831e-05 -9.68e-06 0)
(1.838e-05 -9.017e-06 0)
(1.926e-05 -9.235e-06 0)
(2.028e-05 -9.597e-06 0)
(2.166e-05 -1.012e-05 0)
(2.323e-05 -1.04e-05 0)
(2.414e-05 -9.94e-06 0)
(2.413e-05 -9.149e-06 0)
(2.454e-05 -9.084e-06 0)
(2.551e-05 -9.543e-06 0)
(2.526e-05 -9.235e-06 0)
(2.494e-05 -8.53e-06 0)
(2.496e-05 -7.857e-06 0)
(2.531e-05 -7.075e-06 0)
(2.6e-05 -6.256e-06 0)
(2.699e-05 -5.527e-06 0)
(2.814e-05 -5.079e-06 0)
(2.924e-05 -4.9e-06 0)
(3.017e-05 -4.908e-06 0)
(3.09e-05 -4.957e-06 0)
(3.15e-05 -4.919e-06 0)
(3.207e-05 -4.778e-06 0)
(3.268e-05 -4.618e-06 0)
(3.333e-05 -4.484e-06 0)
(3.404e-05 -4.39e-06 0)
(3.483e-05 -4.365e-06 0)
(3.568e-05 -4.458e-06 0)
(3.666e-05 -4.761e-06 0)
(3.766e-05 -5.398e-06 0)
(3.849e-05 -6.286e-06 0)
(3.872e-05 -6.891e-06 0)
(3.994e-05 -6.373e-06 0)
(4.386e-05 -5.354e-06 0)
(4.503e-05 -5.407e-06 0)
(4.923e-05 -7.888e-06 0)
(5.588e-05 -1.104e-05 0)
(5.697e-05 -1.268e-05 0)
(6.529e-05 -1.511e-05 0)
(6.863e-05 -1.649e-05 0)
(6.741e-05 -1.599e-05 0)
(6.476e-05 -1.426e-05 0)
(7.014e-05 -1.086e-05 0)
(6.6e-05 -5.273e-06 0)
(6.646e-05 -3.244e-06 0)
(6.937e-05 -1.732e-06 0)
(8.844e-05 -3.454e-07 0)
(0.0001551 2.15e-06 0)
(0.0002793 2.015e-08 0)
(0.0005934 -4.21e-05 0)
(0.001049 -0.0001408 0)