/*--------------------------------*- C++ -*----------------------------------*\
| =========                 |                                                 |
| \\      /  F ield         | OpenFOAM: The Open Source CFD Toolbox           |
|  \\    /   O peration     | Version:  5.x                                   |
|   \\  /    A nd           | Web:      www.OpenFOAM.org                      |
|    \\/     M anipulation  |                                                 |
\*---------------------------------------------------------------------------*/
FoamFile
{
    version     2.0;
    format      ascii;
    class       volScalarField;
    location    "204";
    object      gamma;
}
// * * * * * * * * * * * * * * * * * * * * * * * * * * * * * * * * * * * * * //

dimensions      [0 0 0 0 0 0 0];

internalField   nonuniform List<scalar> 
86400
(
1.674e-08
2.277e-08
4.295e-08
1.062e-07
3.232e-07
6.292e-07
7.931e-07
9.219e-07
1.095e-06
9.825e-07
1.487e-06
1.711e-06
1.731e-06
1.02e-06
6.628e-07
6.594e-07
1.994e-06
7.023e-06
1.545e-05
2.033e-05
2.203e-05
3.079e-05
7.683e-05
0.0001184
0.0001416
0.0002389
0.0002351
0.0002661
0.0002774
0.0002404
0.0001919
0.0001634
0.0001682
0.0001825
0.0002472
0.0003672
0.0004726
0.0005949
0.0005749
0.0007196
0.0007523
0.0008302
0.0007239
0.000502
0.0004785
0.0006988
0.001265
0.001799
0.002295
0.001703
0.001465
0.00143
0.001578
0.001997
0.00263
0.004075
0.006361
0.007752
0.007642
0.007031
0.005436
0.005458
0.005414
0.006125
0.008535
0.0127
0.01339
0.01276
0.008435
0.006942
0.008678
0.0143
0.01705
0.01432
0.0119
0.01013
0.008315
0.009696
0.01242
0.01165
0.01147
0.009842
0.009172
0.01089
0.01641
0.01887
0.0203
0.01808
0.01877
0.01854
0.01365
0.01292
0.01305
0.01764
0.02003
0.02166
0.01665
0.01531
0.01491
0.01385
0.01208
0.007958
0.00511
0.002823
0.001678
0.001826
0.003237
0.005691
0.004378
0.002266
0.0009217
0.0005919
0.0006766
0.0009281
0.0009577
0.0008343
0.000697
0.0005842
0.0005345
0.0005083
0.0004875
0.0004589
0.0003768
0.0002719
0.0002051
0.0001743
0.0001507
0.0001469
0.0001385
0.0001203
9.51e-05
0.0001051
8.692e-05
5.354e-05
3.464e-05
2.56e-05
3.077e-05
5.834e-05
3.831e-05
1.066e-05
3.181e-06
1.397e-06
1.338e-06
8.723e-07
1.552e-07
1.492e-08
1.653e-09
1.13e-10
2.342e-11
1.77e-11
2.409e-11
1.04e-10
1.511e-09
1.339e-08
2.082e-07
2.167e-06
1.538e-05
8.857e-05
0.08559
0.9997
2.376e-08
2.594e-08
4.26e-08
8.872e-08
2.815e-07
5.54e-07
6.639e-07
6.276e-07
4.73e-07
3.33e-07
4.99e-07
7.543e-07
1.323e-06
1.673e-06
1.305e-06
8.696e-07
2.061e-06
6.955e-06
1.973e-05
5.524e-05
7.5e-05
9.044e-05
0.0001401
0.0001968
0.0002371
0.0003071
0.0003294
0.0003794
0.0004581
0.0003417
0.0002762
0.0002444
0.0002777
0.0003275
0.0004855
0.0007367
0.001129
0.001687
0.002048
0.002543
0.002282
0.001954
0.00167
0.001205
0.0009122
0.001139
0.001612
0.002169
0.003122
0.003135
0.003163
0.003732
0.004984
0.006653
0.005951
0.004954
0.004175
0.003291
0.002642
0.002785
0.002458
0.002398
0.002151
0.002086
0.002388
0.004151
0.005187
0.006181
0.005168
0.005511
0.007894
0.01227
0.009258
0.005662
0.00318
0.003095
0.004701
0.009301
0.01423
0.0139
0.01223
0.01021
0.01144
0.01453
0.02398
0.02982
0.03551
0.03349
0.0387
0.04528
0.04284
0.04414
0.04169
0.03637
0.02943
0.02302
0.01539
0.01256
0.01134
0.00978
0.009568
0.009427
0.01024
0.008696
0.005372
0.004255
0.005341
0.007298
0.006468
0.003891
0.00146
0.0008174
0.0005823
0.0005038
0.0004093
0.0004051
0.0005661
0.001022
0.001672
0.00185
0.001804
0.001674
0.001333
0.0009444
0.0007324
0.0006524
0.0005771
0.0005769
0.0005285
0.0004445
0.0003532
0.0002941
0.0001839
0.0001188
9.269e-05
6.943e-05
7.473e-05
9.081e-05
5.16e-05
1.258e-05
4.766e-06
1.57e-06
7.599e-07
3.616e-07
6.967e-08
1.093e-08
2.16e-09
4.829e-10
5.403e-10
9.531e-10
2.931e-09
1.156e-08
9.668e-08
7.287e-07
1.678e-05
0.0005244
0.03196
0.8226
0.9917
1
4.338e-08
4.167e-08
5.952e-08
9.895e-08
2.791e-07
4.893e-07
5.145e-07
4.138e-07
2.353e-07
1.958e-07
3.218e-07
7.969e-07
1.677e-06
3.21e-06
2.45e-06
2.068e-06
5.883e-06
2.21e-05
4.466e-05
0.0001138
0.0001029
0.0001078
0.0001689
0.0002687
0.0002708
0.0004062
0.0005269
0.0007321
0.00105
0.0008529
0.0006382
0.000713
0.0008066
0.0007916
0.0007899
0.0008011
0.00101
0.001441
0.001326
0.001362
0.00101
0.000908
0.0007823
0.0007532
0.0006615
0.001001
0.001892
0.003024
0.004787
0.005818
0.004585
0.003461
0.002856
0.002621
0.001881
0.001874
0.001653
0.001217
0.0008941
0.0009493
0.0009785
0.001109
0.001243
0.001636
0.001641
0.00211
0.002466
0.003036
0.002747
0.003586
0.004915
0.005311
0.002957
0.002107
0.001776
0.003235
0.008183
0.01882
0.02728
0.02945
0.02552
0.01917
0.02089
0.02581
0.04647
0.05685
0.06878
0.06971
0.0639
0.05217
0.03491
0.02302
0.01401
0.01284
0.01183
0.01123
0.01044
0.01065
0.009178
0.008107
0.009034
0.01132
0.01557
0.01558
0.01199
0.01006
0.009244
0.01102
0.009679
0.006043
0.003168
0.002469
0.001465
0.001061
0.000823
0.0008989
0.001126
0.001617
0.001884
0.001403
0.001122
0.001134
0.0009532
0.0007189
0.0005616
0.0004788
0.0003966
0.0003703
0.0003148
0.0002895
0.0002731
0.0002246
0.0001232
5.885e-05
3.974e-05
3.245e-05
5.088e-05
8.062e-05
6.388e-05
2.172e-05
6.691e-06
1.969e-06
1.007e-06
4.923e-07
1.547e-07
3.541e-08
1.07e-08
5.277e-09
1.329e-08
3.973e-08
1.78e-07
6.567e-07
6.167e-06
7.107e-05
0.002253
0.1654
0.9531
0.999
1
1
8.419e-08
7.803e-08
8.6e-08
1.061e-07
2.318e-07
3.243e-07
2.633e-07
1.773e-07
1.066e-07
1.346e-07
2.027e-07
2.622e-07
2.827e-07
8.891e-07
1.154e-06
2.081e-06
6.39e-06
1.129e-05
9.453e-06
1.123e-05
7.831e-06
5.362e-06
1.302e-05
2.877e-05
3.037e-05
5.88e-05
0.0001165
0.0002051
0.0004092
0.000487
0.0003765
0.0005943
0.0008881
0.001046
0.001034
0.0009739
0.001037
0.001483
0.001107
0.001054
0.0008767
0.0008733
0.001123
0.001459
0.0009389
0.0009123
0.0008572
0.0009499
0.001294
0.001911
0.001355
0.0009012
0.0008329
0.0008425
0.0006149
0.0006208
0.0004702
0.0003318
0.0002921
0.0004169
0.0005297
0.0007668
0.00105
0.001231
0.001113
0.001366
0.001416
0.001588
0.001548
0.002736
0.005017
0.005315
0.003445
0.002929
0.002059
0.004201
0.01052
0.01953
0.01987
0.02242
0.01875
0.01532
0.01576
0.01612
0.01947
0.02101
0.02519
0.02815
0.03226
0.03843
0.04234
0.03859
0.024
0.02062
0.01669
0.01476
0.01477
0.01657
0.01424
0.01414
0.01393
0.01368
0.01992
0.02036
0.01403
0.01077
0.006923
0.006876
0.006319
0.005423
0.002849
0.002594
0.001369
0.0008769
0.0006273
0.0008593
0.001499
0.002697
0.003246
0.002282
0.001642
0.001716
0.001536
0.001246
0.001018
0.0008765
0.0007156
0.0006559
0.0005901
0.0005885
0.0006211
0.0005317
0.000286
0.0001367
8.187e-05
3.809e-05
3.002e-05
1.98e-05
9.665e-06
3.9e-06
1.145e-06
3.262e-07
2.105e-07
1.88e-07
1.537e-07
9.431e-08
7.917e-08
9.873e-08
7.354e-07
4.816e-06
4.816e-05
0.0003025
0.003234
0.06136
0.8234
0.9923
0.9999
1
1
1
2.106e-07
2.326e-07
2.226e-07
2.359e-07
3.176e-07
2.688e-07
1.215e-07
8.988e-08
7.53e-08
1.354e-07
1.611e-07
9.05e-08
3.852e-08
1.312e-07
2.707e-07
1.677e-06
1.223e-05
7.875e-06
1.434e-06
8.731e-07
7.136e-07
5.641e-07
2.786e-06
6.788e-06
8.713e-06
2.92e-05
0.0001202
0.0004826
0.001301
0.001262
0.0004301
0.0003699
0.000356
0.0003826
0.0004126
0.0003941
0.0003219
0.0005456
0.0006238
0.001005
0.0008015
0.000574
0.0002402
0.0001328
5.109e-05
4.462e-05
3.599e-05
4.836e-05
0.0001093
0.000351
0.0004611
0.0005173
0.0004795
0.000555
0.0004743
0.0005347
0.0004563
0.0003471
0.0004439
0.0008713
0.001519
0.002621
0.004335
0.0051
0.003138
0.002002
0.001492
0.001233
0.001045
0.00168
0.003095
0.002797
0.002734
0.003523
0.00392
0.006238
0.01204
0.01185
0.008907
0.01114
0.01004
0.008662
0.00959
0.01132
0.01549
0.02104
0.02721
0.02877
0.03076
0.03418
0.03262
0.03572
0.02344
0.01914
0.01373
0.01333
0.008867
0.009122
0.008608
0.007218
0.004379
0.002018
0.001524
0.001699
0.002128
0.004602
0.005746
0.005128
0.004371
0.006478
0.004449
0.00495
0.003028
0.002168
0.001444
0.001327
0.00115
0.001144
0.000799
0.0005981
0.0004342
0.0004775
0.0004517
0.0004124
0.0003776
0.0003463
0.0002903
0.0002732
0.0002645
0.000295
0.0003365
0.0002474
9.839e-05
3.077e-05
5.382e-06
1.099e-06
6.299e-07
7.589e-07
5.859e-07
4.673e-07
2.043e-07
1.044e-07
1.149e-07
2.284e-07
5.646e-07
1.146e-06
2.775e-06
8.642e-06
9.35e-05
0.0006735
0.007908
0.08192
0.6994
0.9753
0.9991
1
1
1
1
1
3.473e-07
5.35e-07
5.067e-07
5.353e-07
3.579e-07
1.909e-07
6.481e-08
5.8e-08
8.509e-08
2.699e-07
3.42e-07
8.314e-08
1.584e-08
3.313e-08
2.313e-07
2.273e-06
1.316e-05
4.616e-06
6.531e-07
4.809e-07
8.664e-07
1.104e-06
7.431e-06
4.426e-06
2.057e-06
2.794e-06
9.725e-06
4.988e-05
0.00034
0.0003288
8.759e-05
5.631e-05
5.095e-05
6.242e-05
0.0001339
0.0001734
9.928e-05
0.0001164
0.0001358
0.0001285
5.224e-05
2.231e-05
4.081e-06
1.191e-06
4.079e-07
1.357e-07
2.121e-08
2.04e-08
5.486e-08
3.425e-07
9.831e-07
3.372e-06
9.165e-06
1.966e-05
2.775e-05
2.668e-05
1.826e-05
2.149e-05
9.916e-05
0.0005388
0.001997
0.00323
0.002549
0.001935
0.001022
0.0006399
0.001163
0.001806
0.001882
0.003285
0.006408
0.00484
0.004222
0.004023
0.002573
0.002095
0.001232
0.0008123
0.0006835
0.001391
0.002923
0.009008
0.01672
0.0234
0.02708
0.02768
0.02647
0.02859
0.04173
0.06843
0.05783
0.01918
0.002799
0.00056
0.0001461
0.0001006
5.018e-05
5.315e-05
5.294e-05
9.764e-05
0.0001499
0.0001636
0.0001281
0.0001158
0.0001228
0.0003299
0.0005299
0.001072
0.001696
0.001749
0.0009529
0.0009853
0.0007732
0.0007726
0.0006157
0.0005412
0.000433
0.0003994
0.0003155
0.0002697
0.0001973
0.0001977
0.0001839
0.0001795
0.0001715
0.0001454
0.0001114
8.007e-05
5.147e-05
2.757e-05
1.92e-05
1.482e-05
1.091e-05
8.131e-06
2.565e-06
5.231e-07
1.889e-07
1.79e-07
1.911e-07
2.962e-07
2.077e-07
1.871e-07
3.373e-07
1.47e-06
9.626e-06
5.034e-05
0.0002526
0.001554
0.01608
0.1541
0.8413
0.9814
0.9986
1
1
1
1
1
1
1
4.11e-07
8.785e-07
7.335e-07
6.235e-07
3.1e-07
1.504e-07
5.052e-08
8.838e-08
3.536e-07
1.638e-06
1.7e-06
2.788e-07
1.695e-08
1.873e-08
6.029e-08
1.024e-06
1.181e-05
1.299e-05
3.575e-06
3.81e-06
9.72e-06
1.155e-05
4.62e-05
8.425e-06
2.177e-06
1.45e-06
3.667e-06
1.479e-05
0.0001562
0.0001701
4.673e-05
1.758e-05
1.744e-05
3.097e-05
8.105e-05
9.175e-05
3.013e-05
2.311e-05
4.094e-05
4.228e-05
1.056e-05
1.817e-06
9.721e-08
1.106e-08
3.191e-09
3.393e-10
2.063e-11
1.355e-11
3.71e-11
4.321e-10
2.461e-09
1.303e-08
5.614e-08
2.049e-07
4.263e-07
4.795e-07
4.557e-07
1.05e-06
1.572e-05
0.0001658
0.001284
0.002984
0.002416
0.002473
0.002497
0.001723
0.004129
0.007141
0.00672
0.006016
0.009054
0.00287
0.001005
0.0005453
0.0003839
0.000482
0.0002434
0.0001171
3.763e-05
3.674e-05
9.685e-05
0.001134
0.004939
0.006189
0.004971
0.002783
0.002109
0.004138
0.02323
0.09546
0.06341
0.01535
0.001531
0.0002451
5.722e-05
4.149e-05
1.083e-05
6.372e-06
3.183e-06
9.717e-06
3.01e-05
5.298e-05
5.19e-05
2.032e-05
7.153e-06
5.807e-06
5.973e-06
9.166e-06
4.537e-05
0.0001027
0.0001882
0.0003987
0.0004814
0.0006686
0.0007118
0.0006383
0.0003824
0.0002764
0.0001871
0.0002007
0.0001874
0.0001627
0.0001063
5.232e-05
2.552e-05
1.492e-05
1.221e-05
1.134e-05
9.942e-06
4.793e-06
2.893e-06
2.701e-06
3.351e-06
4.478e-06
2.601e-06
8.308e-07
5.221e-07
1.115e-06
2.845e-06
1.153e-05
2.313e-05
3.819e-05
9.161e-05
0.0004318
0.002756
0.01948
0.1455
0.7347
0.9598
0.9948
0.9997
1
1
1
1
1
1
1
1
1
7.455e-07
1.498e-06
8.72e-07
6.228e-07
3.432e-07
1.902e-07
1.055e-07
4.323e-07
1.582e-06
3.218e-06
3.193e-06
4.091e-07
2.274e-08
1.929e-08
4.95e-08
5.896e-07
7.881e-06
2.721e-05
4.22e-05
0.0001717
0.0003502
0.0003042
0.0005475
0.0001
1.702e-05
2.93e-06
4.596e-06
1.071e-05
8.801e-05
0.0001363
6.255e-05
5.134e-05
5.143e-05
9.02e-05
0.0001709
0.0001553
4.755e-05
4.703e-05
0.0001383
6.068e-05
7.609e-06
4.315e-07
2.009e-08
1.307e-09
4.624e-10
2.198e-11
7.747e-13
3.957e-13
1.268e-12
1.787e-11
1.568e-10
1.619e-09
1.747e-08
1.33e-07
2.837e-07
1.017e-07
3.51e-08
4.518e-08
6.429e-07
1.12e-05
0.0002407
0.001345
0.001765
0.002517
0.003464
0.002882
0.005789
0.005529
0.002161
0.0004776
0.0002632
8.033e-05
2.244e-05
1.091e-05
1.388e-05
2.505e-05
1.957e-05
4.701e-05
2.946e-05
5.392e-05
0.0001934
0.005244
0.03684
0.06864
0.03633
0.02278
0.09499
0.7474
0.9783
0.9953
0.992
0.9617
0.7274
0.09433
0.02802
0.01429
0.001377
0.0002704
4.78e-05
4.65e-05
6.817e-05
0.0002091
5.578e-05
3.104e-06
1.943e-07
6.822e-08
1.536e-07
5.562e-07
3.926e-06
3.743e-06
5.351e-06
8.625e-06
1.485e-05
2.961e-05
3.248e-05
2.751e-05
2.761e-05
2.822e-05
2.722e-05
5.31e-05
9.734e-05
0.000142
0.0001286
6.314e-05
2.361e-05
1.182e-05
1.05e-05
1.134e-05
1.25e-05
6.245e-06
3.645e-06
3.292e-06
8.751e-06
2.783e-05
5.11e-05
3.722e-05
3.169e-05
5.397e-05
0.0001733
0.001105
0.004606
0.01441
0.04733
0.2362
0.8161
0.9744
0.9964
0.9997
1
1
1
1
1
1
1
1
1
1
1
1
1.296e-06
1.765e-06
7.832e-07
4.914e-07
2.896e-07
2.282e-07
3.401e-07
1.197e-06
2.238e-06
2.701e-06
1.322e-06
2.517e-07
5.66e-08
6.269e-08
1.716e-07
1.004e-06
3.878e-06
1.543e-05
4.29e-05
6.902e-05
0.0001503
0.0002781
0.000988
0.000662
0.0002327
6.076e-05
2.663e-05
3.799e-05
0.0001339
0.0002398
0.0001725
0.0002809
0.0002411
0.0003382
0.0002768
0.0001181
2.056e-05
3.333e-05
9.323e-05
1.576e-05
1.181e-06
4.97e-08
3.586e-09
4.186e-10
4.156e-10
4.772e-11
5.145e-12
3.195e-12
9.207e-12
2.236e-11
8.703e-11
4.488e-10
3.234e-09
2.103e-08
5.268e-08
2.383e-08
6.574e-09
6.372e-09
5.283e-08
1.215e-06
6.563e-05
0.0009227
0.003039
0.005174
0.004213
0.001198
0.0006291
0.0002361
5.501e-05
9.767e-06
5.491e-06
3.013e-06
1.386e-06
1.077e-06
7.54e-06
0.0001148
0.0005219
0.006046
0.01417
0.03601
0.3685
0.9356
0.9889
0.9958
0.9964
0.9976
0.9993
0.9999
1
1
1
0.9997
0.9987
0.9967
0.9972
0.996
0.9792
0.8346
0.1228
0.0281
0.02055
0.02854
0.003517
6.534e-05
2.544e-06
1.705e-07
8.821e-08
1.361e-07
3.846e-07
9.625e-08
7.046e-08
4.84e-08
6.148e-08
1.858e-07
8.926e-07
4.121e-06
9.725e-06
9.387e-06
6.313e-06
5.797e-06
9.468e-06
2.238e-05
3.348e-05
2.398e-05
1.018e-05
4.466e-06
4.594e-06
7.683e-06
1.498e-05
1.551e-05
1.832e-05
3.134e-05
0.0001007
0.0004662
0.002194
0.005389
0.01203
0.03779
0.2149
0.7968
0.9581
0.9906
0.9972
0.9991
0.9998
1
1
1
1
1
1
1
1
1
1
1
1
1
1
1
9.898e-07
9.888e-07
5.262e-07
3.772e-07
3.438e-07
4.864e-07
6.729e-07
1.197e-06
1.262e-06
1.047e-06
3.312e-07
1.356e-07
1.078e-07
1.985e-07
7.938e-07
2.382e-06
1.034e-05
1.358e-05
2.026e-05
1.003e-05
1.535e-05
4.536e-05
0.0002899
0.0008326
0.0007424
0.00024
5.154e-05
6.301e-05
9.062e-05
0.0002596
0.0005211
0.001702
0.001696
0.001905
0.0004681
0.0001197
3.9e-05
7.808e-05
7.187e-05
4.251e-06
2.012e-07
7.795e-09
1.309e-09
6.287e-10
9.852e-10
2.359e-10
1.204e-10
1.478e-10
1.538e-10
8.961e-11
8.176e-11
1.118e-10
9.484e-10
1.172e-08
4.163e-08
3.081e-08
1.49e-08
1.185e-08
4.895e-08
1.04e-06
3.818e-05
0.0006972
0.001661
0.001515
0.0004664
6.191e-05
1.141e-05
4.795e-06
2.511e-06
1.3e-06
2.432e-06
6.414e-06
2.282e-05
0.0001062
0.001309
0.01921
0.162
0.8282
0.9658
0.9923
0.999
0.9999
1
1
1
1
1
1
1
1
1
1
1
1
1
1
1
0.9999
0.9994
0.9971
0.9913
0.9817
0.8995
0.1314
0.001604
6.719e-05
9.376e-06
5.16e-06
3.375e-06
1.429e-07
1.065e-08
1.717e-09
9.356e-10
9.984e-10
1.048e-08
1.619e-07
7.606e-07
1.653e-06
1.996e-06
1.28e-06
2.584e-06
1.64e-05
5.231e-05
0.0001075
0.000135
0.0001202
0.0002004
0.0004824
0.001448
0.002825
0.005397
0.01052
0.03007
0.2054
0.803
0.9572
0.9897
0.9967
0.9989
0.9998
1
1
1
1
1
1
1
1
1
1
1
1
1
1
1
1
1
1
1
1
8.087e-07
6.044e-07
4.487e-07
5.703e-07
9.626e-07
6.666e-07
2.68e-07
1.73e-07
1.014e-07
9.771e-08
8.274e-08
8.325e-08
2.597e-07
1.286e-06
3.602e-06
1.111e-05
2.222e-05
9e-06
6.836e-06
1.725e-06
2.453e-06
5.082e-06
6.444e-05
0.0004676
0.001037
0.000639
0.0004442
0.0003477
0.0002218
0.0004094
0.0005176
0.000856
0.0005617
0.0004239
0.0001169
3.65e-05
2.648e-05
0.000118
6.655e-05
4.785e-06
1.297e-07
7.449e-09
7.353e-10
3.366e-10
2.88e-10
3.642e-10
3.158e-09
1.419e-08
1.545e-08
2.216e-09
1.819e-10
5.189e-11
4.487e-10
1.667e-08
2.329e-07
9.609e-07
9.671e-07
5.542e-07
1.041e-06
1.225e-05
0.0001129
0.0003947
0.000306
0.0001069
1.78e-05
3.63e-06
1.312e-06
2.023e-06
5.821e-06
1.796e-05
8.622e-05
0.001614
0.01467
0.1751
0.8848
0.9875
0.9986
0.9998
1
1
1
1
1
1
1
1
1
1
1
1
1
1
1
1
1
1
1
1
1
1
1
1
0.9999
0.999
0.9904
0.8945
0.1573
0.013
0.001554
4.695e-05
1.419e-06
7.527e-08
1.79e-08
1.336e-08
1.597e-07
2.438e-06
9.383e-06
1.645e-05
2.212e-05
1.114e-05
2.067e-05
0.0001388
0.0006981
0.003185
0.00956
0.0122
0.01465
0.03095
0.1688
0.7698
0.9634
0.9918
0.9973
0.9992
0.9998
1
1
1
1
1
1
1
1
1
1
1
1
1
1
1
1
1
1
1
1
1
1
1
1
1
7.182e-07
5.183e-07
5.166e-07
8.996e-07
1.736e-06
1.149e-06
2.028e-07
6.567e-08
1.977e-08
4.458e-08
6.492e-08
4.033e-07
2.272e-06
6.045e-06
1.533e-05
5.422e-05
4.996e-05
2.667e-05
1.318e-05
2.816e-06
3.93e-06
1.079e-05
0.0001107
0.0004575
0.0009608
0.0007597
0.001082
0.0008499
0.0007688
0.0008914
0.0009777
0.0008761
0.0004028
0.000153
8.779e-05
4.54e-05
5.811e-05
0.0003157
8.031e-05
4.203e-06
8.598e-08
2.4e-09
1.363e-10
7.013e-11
3.172e-11
1.114e-10
2.278e-09
4.521e-08
5.498e-08
6.766e-09
2.271e-10
6.614e-11
8.892e-10
7.863e-08
2.51e-06
1.251e-05
1.893e-05
1.507e-05
1.482e-05
3.161e-05
2.275e-05
1.015e-05
3.66e-06
1.549e-06
6.657e-07
1.423e-06
6.2e-06
6.818e-05
0.001188
0.01479
0.1734
0.8949
0.9883
0.9986
0.9999
1
1
1
1
1
1
1
1
1
1
1
1
1
1
1
1
1
1
1
1
1
1
1
1
1
1
1
1
1
1
0.9999
0.9995
0.9981
0.9881
0.8869
0.1287
0.007254
0.00217
0.001961
0.007095
0.02304
0.02095
0.01813
0.0192
0.008737
0.008095
0.01886
0.07518
0.6818
0.9527
0.9904
0.997
0.9983
0.9993
0.9998
1
1
1
1
1
1
1
1
1
1
1
1
1
1
1
1
1
1
1
1
1
1
1
1
1
1
1
1
1
1
2.888e-07
2.701e-07
3.189e-07
5.431e-07
1.582e-06
1.341e-06
2.012e-07
6.007e-08
4.797e-08
1.266e-07
4.202e-07
4.196e-06
1.101e-05
2.517e-05
4.387e-05
7.063e-05
6.1e-05
4.562e-05
2.175e-05
6.43e-06
8.615e-06
2.232e-05
0.0001259
0.0002859
0.0006363
0.0006702
0.0018
0.001761
0.002287
0.001897
0.002494
0.001705
0.001021
0.0005555
0.0003011
0.0001797
0.0002523
0.0008758
0.0001248
8.797e-06
2.601e-07
8.102e-09
2.331e-10
1.421e-10
5.488e-11
3.328e-10
1.346e-08
5.837e-07
5.479e-07
8.746e-08
1.405e-09
2.297e-10
1.48e-09
1.118e-07
2.409e-06
1.392e-05
2.595e-05
2.141e-05
1.706e-05
1.151e-05
3.446e-06
8.584e-07
3.263e-07
5.805e-07
3.273e-06
5.926e-05
0.002158
0.1092
0.853
0.9822
0.9975
0.9998
1
1
1
1
1
1
1
1
1
1
1
1
1
1
1
1
1
1
1
1
1
1
1
1
1
1
1
1
1
1
1
1
1
1
1
1
1
0.9999
0.9996
0.9992
0.999
0.9988
0.9991
0.9992
0.9986
0.9985
0.9988
0.9985
0.9985
0.9986
0.999
0.9998
1
1
1
1
1
1
1
1
1
1
1
1
1
1
1
1
1
1
1
1
1
1
1
1
1
1
1
1
1
1
1
1
1
1
1
1
3.392e-07
2.867e-07
3.846e-07
5.19e-07
1.536e-06
2.322e-06
6.08e-07
3.801e-07
2.783e-07
7.803e-07
2.587e-06
1.791e-05
2.44e-05
3.653e-05
3.39e-05
4.037e-05
4.493e-05
4.313e-05
3.215e-05
2.865e-05
5.397e-05
0.0001144
0.0002372
0.0002507
0.0002686
0.000236
0.0007806
0.0008461
0.001616
0.002595
0.004355
0.004048
0.004125
0.002017
0.0007514
0.0002892
0.0002224
0.0005368
0.0002011
5.491e-05
4.051e-06
2.346e-07
9.661e-09
6.206e-09
3.15e-09
2.046e-08
3.859e-07
1.342e-05
1.852e-05
5.952e-06
1.633e-07
3.944e-08
1.152e-07
1.392e-06
9.962e-06
1.389e-05
9.379e-06
5.236e-06
2.82e-06
1.511e-06
1.067e-06
7.934e-07
2.942e-06
4.722e-05
0.0021
0.1318
0.9249
0.9947
0.9995
1
1
1
1
1
1
1
1
1
1
1
1
1
1
1
1
1
1
1
1
1
1
1
1
1
1
1
1
1
1
1
1
1
1
1
1
1
1
1
1
1
1
1
1
1
1
1
1
1
1
1
1
1
1
1
1
1
1
1
1
1
1
1
1
1
1
1
1
1
1
1
1
1
1
1
1
1
1
1
1
1
1
1
1
1
1
1
1
1
1
1
8.559e-07
6.823e-07
1.17e-06
5.756e-07
1.066e-06
8.312e-07
5.006e-07
1.2e-06
3.116e-06
2.794e-06
4.125e-06
9.116e-06
1.514e-05
2.215e-05
2.662e-05
1.23e-05
2.463e-06
5.98e-07
2.42e-07
1.985e-07
7.725e-07
4.366e-06
2.603e-05
6.767e-05
0.000117
0.0001208
0.0002753
0.000255
0.0003685
0.000464
0.0008389
0.001677
0.003667
0.002619
0.0008434
0.0002288
0.0001225
0.0003222
0.0003181
0.0003072
9.118e-05
1.386e-05
1.407e-06
1.106e-06
6.35e-07
4.481e-06
3.158e-05
0.0004184
0.0006836
0.0003624
3.366e-05
6.696e-06
5.421e-06
7.791e-06
1.399e-05
5.185e-06
2.322e-06
1.021e-06
1.176e-06
2.064e-06
1.208e-05
7.213e-05
0.001966
0.1437
0.9309
0.9946
0.9997
1
1
1
1
1
1
1
1
1
1
1
1
1
1
1
1
1
1
1
1
1
1
1
1
1
1
1
1
1
1
1
1
1
1
1
1
1
1
1
1
1
1
1
1
1
1
1
1
1
1
1
1
1
1
1
1
1
1
1
1
1
1
1
1
1
1
1
1
1
1
1
1
1
1
1
1
1
1
1
1
1
1
1
1
1
1
1
1
1
1
1
1
1
2.845e-06
2.584e-06
5.843e-06
1.175e-06
8.699e-07
5.914e-07
9.011e-07
5.354e-06
1.854e-05
8.384e-06
4.82e-06
3.203e-06
2.515e-06
1.255e-05
8.281e-06
7.572e-07
7.189e-08
7.683e-09
2.6e-09
2.186e-09
1.912e-08
4.5e-07
7.364e-06
4.679e-05
0.0001786
0.0001676
0.0002904
0.0003408
0.0003213
0.0003486
0.0007028
0.002024
0.005856
0.006287
0.001969
0.0004
0.000205
0.0003683
0.0005749
0.001067
0.001059
0.0004194
0.0001294
0.0001507
0.0001041
0.0001309
0.0002221
0.0007723
0.002006
0.003563
0.00183
0.0004428
0.0001939
4.332e-05
2.381e-05
4.625e-06
2.81e-06
2.471e-06
1.748e-05
8.723e-05
0.004128
0.1424
0.9132
0.9944
0.9998
1
1
1
1
1
1
1
1
1
1
1
1
1
1
1
1
1
1
1
1
1
1
1
1
1
1
1
1
1
1
1
1
1
1
1
1
1
1
1
1
1
1
1
1
1
1
1
1
1
1
1
1
1
1
1
1
1
1
1
1
1
1
1
1
1
1
1
1
1
1
1
1
1
1
1
1
1
1
1
1
1
1
1
1
1
1
1
1
1
1
1
1
1
1
1
6.359e-06
6.923e-06
3.096e-05
5.511e-06
9.905e-07
4.178e-07
1.258e-06
8.193e-06
3.062e-05
1.533e-05
4.311e-06
2.27e-06
3.176e-06
2.432e-05
3.084e-06
7.627e-08
5.824e-09
7.235e-10
4.86e-10
4.619e-10
5.977e-09
1.735e-07
4.043e-06
4.352e-05
0.0004187
0.0002943
0.0005968
0.0006882
0.000377
0.0002697
0.0003531
0.001134
0.003813
0.005052
0.002084
0.0007192
0.000647
0.0008309
0.001529
0.002153
0.002589
0.002009
0.001786
0.001477
0.0009206
0.0004743
0.0003726
0.0006724
0.001843
0.003511
0.001786
0.0004543
0.0001736
3.972e-05
3.072e-05
1.621e-05
3.312e-05
0.0001638
0.003977
0.1336
0.9169
0.9935
0.9998
1
1
1
1
1
1
1
1
1
1
1
1
1
1
1
1
1
1
1
1
1
1
1
1
1
1
1
1
1
1
1
1
1
1
1
1
1
1
1
1
1
1
1
1
1
1
1
1
1
1
1
1
1
1
1
1
1
1
1
1
1
1
1
1
1
1
1
1
1
1
1
1
1
1
1
1
1
1
1
1
1
1
1
1
1
1
1
1
1
1
1
1
1
1
1
1
1
1.024e-05
1.438e-05
4.755e-05
1.04e-05
1.305e-06
1.493e-06
3.995e-06
3.041e-05
4.785e-05
1.921e-05
3.518e-06
1.452e-06
2.267e-06
1.177e-05
3.642e-07
1.415e-08
2.794e-09
1.282e-09
2.169e-09
2.415e-09
1.962e-08
2.147e-07
5.187e-06
4.353e-05
0.0004672
0.000361
0.0007075
0.001045
0.0008178
0.0007287
0.0007176
0.001426
0.003821
0.004504
0.002167
0.001187
0.00152
0.001701
0.002027
0.001845
0.002475
0.003046
0.006939
0.007579
0.004814
0.001432
0.0004563
0.0002673
0.0004267
0.0008219
0.0004923
0.0002282
0.0001538
7.571e-05
0.0001042
0.0004654
0.005868
0.1079
0.9006
0.9936
0.9996
1
1
1
1
1
1
1
1
1
1
1
1
1
1
1
1
1
1
1
1
1
1
1
1
1
1
1
1
1
1
1
1
1
1
1
1
1
1
1
1
1
1
1
1
1
1
1
1
1
1
1
1
1
1
1
1
1
1
1
1
1
1
1
1
1
1
1
1
1
1
1
1
1
1
1
1
1
1
1
1
1
1
1
1
1
1
1
1
1
1
1
1
1
1
1
1
1
1
1
7.503e-06
1.377e-05
2.973e-05
7.822e-06
8.481e-07
2.38e-06
1.249e-05
0.0001447
0.0001441
4.498e-05
7.422e-06
2.037e-06
1.457e-06
3.636e-06
1.126e-07
9.361e-09
1.333e-08
3.378e-08
1.005e-07
1.122e-07
4.176e-07
1.679e-06
2.834e-05
0.0001763
0.001333
0.0009304
0.001493
0.001646
0.001232
0.0007917
0.0008417
0.001573
0.004227
0.005675
0.003304
0.002194
0.003308
0.00404
0.003391
0.00156
0.001112
0.0009882
0.002603
0.004091
0.003446
0.001282
0.0005843
0.000111
4.954e-05
5.3e-05
3.314e-05
3.949e-05
0.0001299
0.0002994
0.00142
0.03534
0.7916
0.986
0.9995
1
1
1
1
1
1
1
1
1
1
1
1
1
1
1
1
1
1
1
1
1
1
1
1
1
1
1
1
1
1
1
1
1
1
1
1
1
1
1
1
1
1
1
1
1
1
1
1
1
1
1
1
1
1
1
1
1
1
1
1
1
1
1
1
1
1
1
1
1
1
1
1
1
1
1
1
1
1
1
1
1
1
1
1
1
1
1
1
1
1
1
1
1
1
1
1
1
1
1
1
1
1.12e-05
1.418e-05
2.116e-05
8.093e-06
1.185e-06
8.897e-06
4.117e-05
0.0002986
0.000253
0.0001145
2.426e-05
8.617e-06
4.098e-06
4.552e-06
2.772e-07
7.38e-08
3.987e-07
1.851e-06
5.584e-06
5.527e-06
1.289e-05
2.377e-05
0.0001048
0.0003912
0.00119
0.001018
0.001163
0.001405
0.001281
0.0008929
0.0009586
0.001954
0.006024
0.009523
0.00586
0.003192
0.003059
0.002434
0.001562
0.0006249
0.0002527
0.0002062
0.0004219
0.001173
0.002155
0.001634
0.0009701
0.0001114
3.205e-05
1.413e-05
1.695e-05
3.164e-05
0.0004599
0.002855
0.1568
0.9501
0.9981
0.9999
1
1
1
1
1
1
1
1
1
1
1
1
1
1
1
1
1
1
1
1
1
1
1
1
1
1
1
1
1
1
1
1
1
1
1
1
1
1
1
1
1
1
1
1
1
1
1
1
1
1
1
1
1
1
1
1
1
1
1
1
1
1
1
1
1
1
1
1
1
1
1
1
1
1
1
1
1
1
1
1
1
1
1
1
1
1
1
1
1
1
1
1
1
1
1
1
1
1
1
1
1
1
2.616e-05
2.699e-05
3.768e-05
1.005e-05
2.319e-06
1.385e-05
3.451e-05
0.0002189
0.0002325
0.0001701
3.88e-05
3.218e-05
2.397e-05
2.145e-05
3.295e-06
1.554e-06
5.662e-06
1.486e-05
3.189e-05
6.872e-05
0.000133
0.0001599
0.0002832
0.0003483
0.0003137
0.0004201
0.0008305
0.0006868
0.0005676
0.0003586
0.0002578
0.0004733
0.002209
0.005535
0.00487
0.002667
0.001905
0.001832
0.001476
0.0008435
0.0002725
0.0001371
0.0001478
0.0002588
0.0004609
0.0005634
0.0006241
0.0001058
7.342e-05
3.452e-05
8.8e-05
0.0002814
0.02001
0.6914
0.9888
0.9998
1
1
1
1
1
1
1
1
1
1
1
1
1
1
1
1
1
1
1
1
1
1
1
1
1
1
1
1
1
1
1
1
1
1
1
1
1
1
1
1
1
1
1
1
1
1
1
1
1
1
1
1
1
1
1
1
1
1
1
1
1
1
1
1
1
1
1
1
1
1
1
1
1
1
1
1
1
1
1
1
1
1
1
1
1
1
1
1
1
1
1
1
1
1
1
1
1
1
1
1
1
1
1
1
6.349e-05
5.433e-05
6.199e-05
1.215e-05
4.867e-06
1.39e-05
1.312e-05
8.051e-05
0.0001574
0.0001833
6.098e-05
0.0001214
6.932e-05
8.043e-05
3.481e-05
3.744e-05
7.447e-05
8.682e-05
6.101e-05
0.0001212
0.0003051
0.0003088
0.0004292
0.0002956
0.0001716
0.0002784
0.0009253
0.0008611
0.0006421
0.0004238
0.0002037
0.0002599
0.000778
0.002645
0.004354
0.003764
0.003321
0.003
0.002477
0.00183
0.0007405
0.0002419
0.0001092
8.855e-05
6.85e-05
0.0001061
0.0002505
0.0001723
0.0004583
0.0011
0.01064
0.2889
0.9727
0.9991
1
1
1
1
1
1
1
1
1
1
1
1
1
1
1
1
1
1
1
1
1
1
1
1
1
1
1
1
1
1
0.9994
0.9987
0.9981
0.9981
0.9988
0.999
0.9989
0.9988
0.9983
0.998
0.9988
0.9997
0.9999
1
1
1
1
1
1
1
1
1
1
1
1
1
1
1
1
1
1
1
1
1
1
1
1
1
1
1
1
1
1
1
1
1
1
1
1
1
1
1
1
1
1
1
1
1
1
1
1
1
1
1
1
1
1
1
1
1
1
1
1
1
1
1
0.0001261
9.16e-05
0.0001219
1.957e-05
1.149e-05
5.462e-06
2.243e-06
1.357e-05
8.04e-05
0.0001942
0.0002058
0.0004053
0.0002341
0.0003543
0.0002693
0.0003689
0.0002539
0.0001802
6.181e-05
0.0001047
0.0001876
0.0001955
0.0003953
0.0002647
0.0003606
0.0006674
0.002195
0.001825
0.001385
0.0007676
0.0003389
0.0002423
0.0003817
0.001445
0.003824
0.006827
0.008281
0.005663
0.004121
0.003276
0.001431
0.0004818
0.0001504
5.095e-05
2.91e-05
4.922e-05
0.0002416
0.001018
0.009006
0.1142
0.8771
0.9933
0.9999
1
1
1
1
1
1
1
1
1
1
1
1
1
1
1
1
1
1
1
1
1
1
1
1
1
1
1
0.9998
0.9976
0.9889
0.95
0.6847
0.1064
0.02168
0.01381
0.01568
0.01909
0.01783
0.00865
0.008251
0.02303
0.1715
0.7412
0.9596
0.9933
0.9987
0.9997
1
1
1
1
1
1
1
1
1
1
1
1
1
1
1
1
1
1
1
1
1
1
1
1
1
1
1
1
1
1
1
1
1
1
1
1
1
1
1
1
1
1
1
1
1
1
1
1
1
1
1
1
1
1
1
1
1
1
1
1
9.077e-05
7.291e-05
9.925e-05
1.746e-05
2.734e-05
5.778e-06
2.443e-06
8.026e-06
6.267e-05
0.0001128
0.0002456
0.0004308
0.0003372
0.0005999
0.0006583
0.001181
0.0008234
0.0004157
0.0002026
0.0001299
0.0001761
0.0001715
0.0003142
0.0002654
0.000333
0.0004075
0.001186
0.001465
0.001986
0.001877
0.000764
0.0002362
0.0001349
0.0002579
0.00101
0.003625
0.006939
0.004324
0.002739
0.002358
0.001959
0.001024
0.0003514
9.294e-05
5.82e-05
0.0002102
0.00232
0.04875
0.7796
0.9837
0.9995
1
1
1
1
1
1
1
1
1
1
1
1
1
1
1
1
1
1
1
1
1
1
1
1
1
1
0.9997
0.9966
0.9606
0.7696
0.1523
0.02504
0.005537
0.0007083
6.963e-05
1.674e-05
1.576e-05
1.57e-05
2.248e-05
2.213e-05
1.317e-05
2.441e-05
0.0001057
0.0005231
0.00203
0.009561
0.02985
0.1468
0.6844
0.9232
0.9863
0.9987
0.9999
1
1
1
1
1
1
1
1
1
1
1
1
1
1
1
1
1
1
1
1
1
1
1
1
1
1
1
1
1
1
1
1
1
1
1
1
1
1
1
1
1
1
1
1
1
1
1
1
1
1
1
1
1
1
1
0.9999
7.069e-05
8.616e-05
0.0001752
2.568e-05
4.976e-05
4.829e-06
2.346e-06
4.484e-06
9.914e-05
0.0001249
0.0003177
0.0002992
0.0003227
0.0005479
0.0004866
0.0007125
0.0008689
0.0007121
0.0005058
0.0001734
8.162e-05
4.907e-05
0.0001365
0.0003172
0.0005635
0.0003778
0.0006997
0.001027
0.001414
0.001395
0.00069
0.0001709
7.51e-05
0.0001597
0.000703
0.003452
0.008031
0.006201
0.003366
0.003109
0.00364
0.002008
0.0007171
0.0002657
0.0002985
0.001624
0.0596
0.8675
0.995
0.9999
1
1
1
1
1
1
1
1
1
1
1
1
1
1
1
1
1
1
1
1
1
1
1
1
0.9999
0.9977
0.9743
0.8211
0.1438
0.01131
0.001027
0.0001517
3.931e-05
1.194e-05
2.208e-06
4.752e-07
9.855e-08
1.322e-07
2.35e-07
3.316e-07
4.054e-07
3.853e-07
1.404e-06
8.907e-06
2.787e-05
4.799e-05
8.622e-05
0.0001272
0.0003083
0.001673
0.007693
0.03534
0.2502
0.8368
0.9722
0.9975
0.9999
1
1
1
1
1
1
1
1
1
1
1
1
1
1
1
1
1
1
1
1
1
1
1
1
1
1
1
1
1
1
1
1
1
1
1
1
1
1
1
1
1
1
1
1
1
1
1
1
0.9996
0.9982
0.9914
0.9704
0.9248
8.764e-05
0.0001329
0.0003955
4.702e-05
6.309e-05
4.904e-06
4.06e-06
9.456e-06
0.0001013
0.0001216
0.0003132
0.0003283
0.0006086
0.0007835
0.0003223
0.0003606
0.0007807
0.001582
0.001076
0.0001704
2.117e-05
9.707e-06
4.182e-05
0.0002256
0.0007746
0.0005966
0.0006164
0.00102
0.00143
0.001129
0.0006151
0.0001583
7.285e-05
0.0001799
0.0006078
0.002848
0.00521
0.00356
0.002054
0.002384
0.004076
0.003333
0.002023
0.001322
0.003556
0.1211
0.944
0.9989
1
1
1
1
1
1
1
1
1
1
1
1
1
1
1
1
1
1
1
1
1
1
1
1
0.9999
0.9962
0.9219
0.1741
0.0106
0.001669
0.0001999
4.476e-05
1.201e-05
4.013e-06
1.041e-06
3.406e-07
6.077e-08
5.396e-08
3.365e-08
9.115e-08
1.709e-07
3.85e-07
4.709e-07
4.453e-07
9.323e-07
3.166e-06
4.243e-06
3.414e-06
2.629e-06
2.397e-06
3.809e-06
1.297e-05
3.819e-05
8.011e-05
0.000472
0.005067
0.02334
0.2777
0.8863
0.9819
0.9976
0.9998
1
1
1
1
1
1
1
1
1
1
1
1
1
1
1
1
1
1
1
1
1
1
1
1
1
1
1
1
1
1
1
1
1
1
1
1
1
1
1
1
1
0.9995
0.9967
0.971
0.7734
0.1817
0.05396
0.02176
0.01308
0.003235
5.031e-05
8.045e-05
0.0004136
6.113e-05
7.099e-05
7.873e-06
6.481e-06
1.741e-05
0.0002046
0.0001863
0.0002355
0.0002934
0.0009672
0.001329
0.0002616
0.0001257
0.0001446
0.0004998
0.0005683
0.0001768
1.314e-05
6.325e-06
1.829e-05
0.0001771
0.0008162
0.0008272
0.0007487
0.001113
0.0009735
0.0005759
0.0003122
0.0001696
0.0001431
0.0006228
0.001588
0.003387
0.002587
0.001188
0.0003668
0.0002893
0.000513
0.0009815
0.002959
0.01504
0.3664
0.9672
0.9993
1
1
1
1
1
1
1
1
1
1
1
1
1
1
1
1
1
1
1
1
1
1
1
0.9997
0.9942
0.8511
0.09163
0.004461
0.0003903
9.618e-05
3.547e-05
8.9e-06
5.358e-06
3.268e-06
2.358e-06
7.825e-07
6.333e-07
2.854e-07
4.05e-07
3.544e-07
1.12e-06
2.061e-06
4.678e-06
4.9e-06
3.769e-06
5.597e-06
6.568e-06
4.676e-06
3.022e-06
1.935e-06
1.08e-06
6e-07
7.154e-07
7.226e-07
7.368e-07
3.126e-06
1.767e-05
5.643e-05
0.0003402
0.006167
0.06229
0.6909
0.9908
0.9999
1
1
1
1
1
1
1
1
1
1
1
1
1
1
1
1
1
1
1
1
1
1
1
1
1
1
1
1
1
1
1
1
1
1
1
0.9999
0.9993
0.9963
0.9752
0.868
0.2181
0.03165
0.004434
0.0009121
0.0001729
5.007e-05
1.757e-05
8.073e-06
5.232e-07
1.649e-05