/*--------------------------------*- C++ -*----------------------------------*\
| =========                 |                                                 |
| \\      /  F ield         | OpenFOAM: The Open Source CFD Toolbox           |
|  \\    /   O peration     | Version:  5.x                                   |
|   \\  /    A nd           | Web:      www.OpenFOAM.org                      |
|    \\/     M anipulation  |                                                 |
\*---------------------------------------------------------------------------*/
FoamFile
{
    version     2.0;
    format      ascii;
    class       volVectorField;
    location    "204";
    object      U;
}
// * * * * * * * * * * * * * * * * * * * * * * * * * * * * * * * * * * * * * //

dimensions      [0 1 -1 0 0 0 0];

internalField   nonuniform List<vector> 
86400
(
(2.984e-09 -2.984e-09 0)
(8.955e-09 -2.985e-09 0)
(1.493e-08 -2.984e-09 0)
(2.09e-08 -2.984e-09 0)
(2.687e-08 -2.984e-09 0)
(3.284e-08 -2.983e-09 0)
(3.88e-08 -2.982e-09 0)
(4.477e-08 -2.981e-09 0)
(5.073e-08 -2.979e-09 0)
(5.669e-08 -2.977e-09 0)
(6.264e-08 -2.974e-09 0)
(6.858e-08 -2.97e-09 0)
(7.452e-08 -2.965e-09 0)
(8.045e-08 -2.962e-09 0)
(8.637e-08 -2.959e-09 0)
(9.229e-08 -2.955e-09 0)
(9.819e-08 -2.95e-09 0)
(1.041e-07 -2.942e-09 0)
(1.1e-07 -2.918e-09 0)
(1.158e-07 -2.924e-09 0)
(1.217e-07 -2.967e-09 0)
(1.276e-07 -3.001e-09 0)
(1.338e-07 -3.017e-09 0)
(1.4e-07 -3.025e-09 0)
(1.457e-07 -3.031e-09 0)
(1.523e-07 -2.953e-09 0)
(1.576e-07 -2.81e-09 0)
(1.634e-07 -2.784e-09 0)
(1.694e-07 -3.129e-09 0)
(1.759e-07 -3.513e-09 0)
(1.829e-07 -3.511e-09 0)
(1.898e-07 -3.482e-09 0)
(1.97e-07 -3.604e-09 0)
(2.043e-07 -3.74e-09 0)
(2.121e-07 -3.738e-09 0)
(2.201e-07 -3.389e-09 0)
(2.268e-07 -2.805e-09 0)
(2.343e-07 -2.791e-09 0)
(2.398e-07 -3.254e-09 0)
(2.504e-07 -4.579e-09 0)
(2.607e-07 -5.829e-09 0)
(2.741e-07 -5.783e-09 0)
(2.852e-07 -5.488e-09 0)
(2.946e-07 -5.9e-09 0)
(3.063e-07 -5.933e-09 0)
(3.172e-07 -5.699e-09 0)
(3.309e-07 -5.279e-09 0)
(3.392e-07 -3.424e-09 0)
(3.521e-07 -1.749e-09 0)
(3.48e-07 -2.822e-09 0)
(3.59e-07 -4.392e-09 0)
(3.706e-07 -3.866e-09 0)
(3.82e-07 -4.55e-09 0)
(4.031e-07 -1.16e-08 0)
(4.361e-07 -2.243e-08 0)
(4.885e-07 -3.124e-08 0)
(5.58e-07 -3.301e-08 0)
(6.07e-07 -2.259e-08 0)
(6.22e-07 -6.778e-09 0)
(6.31e-07 3.184e-09 0)
(6.041e-07 1.012e-09 0)
(6.254e-07 -7.229e-09 0)
(6.368e-07 -1.609e-08 0)
(6.662e-07 -2.834e-08 0)
(7.182e-07 -3.527e-08 0)
(8.081e-07 -2.556e-08 0)
(8.114e-07 -4.901e-09 0)
(8.364e-07 1.131e-08 0)
(7.64e-07 1.435e-08 0)
(7.486e-07 1.31e-09 0)
(7.662e-07 -2.097e-08 0)
(8.857e-07 -4.933e-08 0)
(9.895e-07 -5.062e-08 0)
(9.99e-07 -1.874e-08 0)
(9.962e-07 1.596e-08 0)
(9.529e-07 5.068e-08 0)
(8.322e-07 5.563e-08 0)
(7.774e-07 3.508e-08 0)
(7.698e-07 1.274e-08 0)
(7.309e-07 -5.728e-09 0)
(7.727e-07 -1.397e-08 0)
(7.738e-07 -4.357e-09 0)
(7.675e-07 2.105e-09 0)
(7.56e-07 4.795e-09 0)
(7.988e-07 6.509e-09 0)
(7.594e-07 1.128e-08 0)
(7.489e-07 1.508e-08 0)
(6.776e-07 1.472e-08 0)
(6.7e-07 1.323e-08 0)
(6.747e-07 8.299e-09 0)
(6.309e-07 -2.107e-09 0)
(7.075e-07 -1.933e-08 0)
(7.869e-07 -4.368e-08 0)
(9.952e-07 -6.682e-08 0)
(1.114e-06 -6.231e-08 0)
(1.257e-06 -3.429e-08 0)
(1.177e-06 -1.927e-09 0)
(1.185e-06 1.196e-08 0)
(1.161e-06 2.353e-08 0)
(1.097e-06 4.558e-08 0)
(1.01e-06 7.325e-08 0)
(8.316e-07 7.63e-08 0)
(7.049e-07 5.325e-08 0)
(6.131e-07 2.153e-08 0)
(5.84e-07 7.758e-10 0)
(5.881e-07 -4.552e-09 0)
(5.977e-07 -2.876e-09 0)
(6.345e-07 6.789e-09 0)
(5.859e-07 1.224e-08 0)
(5.523e-07 7.605e-09 0)
(5.339e-07 4.506e-09 0)
(5.291e-07 4.303e-09 0)
(5.228e-07 2.889e-09 0)
(5.195e-07 4.062e-09 0)
(5.077e-07 6.845e-09 0)
(4.909e-07 9.405e-09 0)
(4.716e-07 1.089e-08 0)
(4.512e-07 1.035e-08 0)
(4.355e-07 6.701e-09 0)
(4.268e-07 3.002e-09 0)
(4.225e-07 1.655e-09 0)
(4.196e-07 1.061e-09 0)
(4.169e-07 5.802e-10 0)
(4.141e-07 8.093e-10 0)
(4.113e-07 1.344e-09 0)
(4.083e-07 1.504e-09 0)
(4.048e-07 1.513e-09 0)
(4.019e-07 1.453e-09 0)
(3.99e-07 1.249e-09 0)
(3.964e-07 1.061e-09 0)
(3.939e-07 6.888e-10 0)
(3.933e-07 2.03e-10 0)
(3.927e-07 8.806e-11 0)
(3.92e-07 2.839e-10 0)
(3.914e-07 2.107e-10 0)
(3.912e-07 -1.955e-10 0)
(3.92e-07 -7.472e-10 0)
(3.946e-07 -1.154e-09 0)
(3.966e-07 -1.245e-09 0)
(3.99e-07 -1.512e-09 0)
(4.029e-07 -2.419e-09 0)
(4.089e-07 -3.501e-09 0)
(4.165e-07 -3.755e-09 0)
(4.232e-07 -2.688e-09 0)
(4.274e-07 -1.804e-09 0)
(4.314e-07 -2.437e-09 0)
(4.37e-07 -3.062e-09 0)
(4.428e-07 -3.046e-09 0)
(4.515e-07 -5.864e-09 0)
(4.642e-07 -6.748e-09 0)
(4.801e-07 -9.933e-09 0)
(5.073e-07 -1.617e-08 0)
(5.377e-07 -1.144e-08 0)
(5.374e-07 4.078e-09 0)
(6.094e-07 -2.61e-08 0)
(5.383e-07 1.564e-07 0)
(-6.195e-07 4.76e-07 0)
(2.898e-06 2.186e-06 0)
(8.365e-05 -3.146e-05 0)
(0.008454 -0.006094 0)
(2.985e-09 -8.955e-09 0)
(8.96e-09 -8.959e-09 0)
(1.493e-08 -8.959e-09 0)
(2.091e-08 -8.958e-09 0)
(2.688e-08 -8.956e-09 0)
(3.285e-08 -8.954e-09 0)
(3.882e-08 -8.951e-09 0)
(4.479e-08 -8.947e-09 0)
(5.076e-08 -8.941e-09 0)
(5.672e-08 -8.935e-09 0)
(6.267e-08 -8.927e-09 0)
(6.862e-08 -8.916e-09 0)
(7.457e-08 -8.903e-09 0)
(8.051e-08 -8.892e-09 0)
(8.643e-08 -8.882e-09 0)
(9.235e-08 -8.869e-09 0)
(9.826e-08 -8.855e-09 0)
(1.042e-07 -8.847e-09 0)
(1.101e-07 -8.828e-09 0)
(1.163e-07 -8.913e-09 0)
(1.224e-07 -9.05e-09 0)
(1.285e-07 -9.118e-09 0)
(1.347e-07 -9.16e-09 0)
(1.411e-07 -9.237e-09 0)
(1.473e-07 -9.186e-09 0)
(1.537e-07 -8.835e-09 0)
(1.594e-07 -8.4e-09 0)
(1.65e-07 -8.223e-09 0)
(1.718e-07 -9.152e-09 0)
(1.774e-07 -1.036e-08 0)
(1.846e-07 -1.043e-08 0)
(1.914e-07 -1.034e-08 0)
(1.991e-07 -1.112e-08 0)
(2.074e-07 -1.228e-08 0)
(2.177e-07 -1.335e-08 0)
(2.294e-07 -1.369e-08 0)
(2.424e-07 -1.348e-08 0)
(2.591e-07 -1.475e-08 0)
(2.729e-07 -1.631e-08 0)
(2.921e-07 -1.76e-08 0)
(2.983e-07 -1.707e-08 0)
(3.043e-07 -1.536e-08 0)
(3.111e-07 -1.418e-08 0)
(3.146e-07 -1.509e-08 0)
(3.199e-07 -1.65e-08 0)
(3.32e-07 -1.68e-08 0)
(3.447e-07 -1.57e-08 0)
(3.548e-07 -1.259e-08 0)
(3.784e-07 -1.031e-08 0)
(3.908e-07 -1.667e-08 0)
(4.152e-07 -2.751e-08 0)
(4.511e-07 -3.319e-08 0)
(4.931e-07 -3.797e-08 0)
(5.461e-07 -4.603e-08 0)
(5.359e-07 -4.936e-08 0)
(5.155e-07 -5.016e-08 0)
(4.933e-07 -4.397e-08 0)
(4.717e-07 -2.78e-08 0)
(4.605e-07 -1.127e-08 0)
(4.774e-07 -4.693e-10 0)
(4.786e-07 -1.962e-09 0)
(4.876e-07 -1.319e-08 0)
(4.86e-07 -2.704e-08 0)
(4.885e-07 -4.676e-08 0)
(4.87e-07 -5.971e-08 0)
(5.267e-07 -5.393e-08 0)
(5.506e-07 -3.122e-08 0)
(6.103e-07 -8.392e-09 0)
(6.227e-07 1.417e-09 0)
(6.571e-07 -2.117e-08 0)
(6.982e-07 -6.872e-08 0)
(7.97e-07 -1.034e-07 0)
(7.277e-07 -5.82e-08 0)
(6.816e-07 -2.958e-09 0)
(6.392e-07 3.417e-08 0)
(6.464e-07 6.962e-08 0)
(6.554e-07 7.869e-08 0)
(7.152e-07 4.734e-08 0)
(7.859e-07 1.34e-08 0)
(7.819e-07 -1.648e-08 0)
(8.045e-07 -3.676e-08 0)
(8.066e-07 -2.694e-08 0)
(8.738e-07 -1.781e-08 0)
(8.991e-07 -8.616e-09 0)
(1.047e-06 -5.785e-09 0)
(1.077e-06 9.508e-09 0)
(1.157e-06 3.252e-08 0)
(1.076e-06 2.03e-08 0)
(1.16e-06 -1.817e-08 0)
(1.329e-06 -6.518e-08 0)
(1.411e-06 -1.329e-07 0)
(1.643e-06 -2.223e-07 0)
(1.746e-06 -2.282e-07 0)
(1.7e-06 -1.344e-07 0)
(1.534e-06 -3.398e-08 0)
(1.383e-06 5.547e-08 0)
(1.162e-06 8.926e-08 0)
(1.079e-06 7.777e-08 0)
(1.024e-06 7.77e-08 0)
(9.554e-07 1.041e-07 0)
(9.418e-07 1.447e-07 0)
(9.08e-07 1.698e-07 0)
(9.014e-07 1.495e-07 0)
(8.405e-07 8.211e-08 0)
(7.45e-07 2.391e-08 0)
(7.105e-07 -1.166e-09 0)
(7.096e-07 -1.317e-09 0)
(7.214e-07 2.478e-08 0)
(6.769e-07 4.172e-08 0)
(6.215e-07 3.681e-08 0)
(5.588e-07 2.763e-08 0)
(5.395e-07 2.094e-08 0)
(5.183e-07 1.399e-08 0)
(5.032e-07 1.533e-08 0)
(4.876e-07 1.918e-08 0)
(4.757e-07 2.222e-08 0)
(4.673e-07 2.253e-08 0)
(4.667e-07 1.868e-08 0)
(4.766e-07 1.022e-08 0)
(4.782e-07 4.699e-09 0)
(4.758e-07 6.192e-09 0)
(4.693e-07 8.122e-09 0)
(4.567e-07 8.117e-09 0)
(4.432e-07 7.778e-09 0)
(4.342e-07 7.196e-09 0)
(4.284e-07 6.287e-09 0)
(4.225e-07 5.529e-09 0)
(4.193e-07 5.237e-09 0)
(4.145e-07 5.283e-09 0)
(4.09e-07 5.159e-09 0)
(4.035e-07 3.915e-09 0)
(4.004e-07 2.219e-09 0)
(3.969e-07 1.475e-09 0)
(3.949e-07 1.598e-09 0)
(3.934e-07 1.237e-09 0)
(3.922e-07 -2.468e-10 0)
(3.93e-07 -2.195e-09 0)
(3.956e-07 -3.321e-09 0)
(3.97e-07 -3.204e-09 0)
(3.981e-07 -3.885e-09 0)
(4.012e-07 -7.134e-09 0)
(4.078e-07 -1.124e-08 0)
(4.176e-07 -1.234e-08 0)
(4.253e-07 -7.922e-09 0)
(4.279e-07 -4.242e-09 0)
(4.304e-07 -7.211e-09 0)
(4.366e-07 -9.38e-09 0)
(4.402e-07 -7.141e-09 0)
(4.481e-07 -1.856e-08 0)
(4.603e-07 -1.866e-08 0)
(4.709e-07 -2.912e-08 0)
(5.06e-07 -5.556e-08 0)
(5.583e-07 -3.132e-08 0)
(5.231e-07 8.842e-09 0)
(7.639e-07 -5.04e-07 0)
(1.136e-06 1.082e-06 0)
(1.497e-05 1.938e-06 0)
(0.002219 -0.0006311 0)
(0.009293 -0.007255 0)
(0.0168 -0.01392 0)
(2.985e-09 -1.493e-08 0)
(8.961e-09 -1.493e-08 0)
(1.494e-08 -1.493e-08 0)
(2.091e-08 -1.493e-08 0)
(2.688e-08 -1.493e-08 0)
(3.286e-08 -1.493e-08 0)
(3.883e-08 -1.492e-08 0)
(4.48e-08 -1.491e-08 0)
(5.076e-08 -1.49e-08 0)
(5.673e-08 -1.489e-08 0)
(6.268e-08 -1.488e-08 0)
(6.864e-08 -1.487e-08 0)
(7.459e-08 -1.485e-08 0)
(8.053e-08 -1.483e-08 0)
(8.646e-08 -1.481e-08 0)
(9.238e-08 -1.479e-08 0)
(9.831e-08 -1.481e-08 0)
(1.043e-07 -1.487e-08 0)
(1.103e-07 -1.497e-08 0)
(1.168e-07 -1.513e-08 0)
(1.226e-07 -1.522e-08 0)
(1.287e-07 -1.542e-08 0)
(1.351e-07 -1.57e-08 0)
(1.422e-07 -1.594e-08 0)
(1.482e-07 -1.592e-08 0)
(1.558e-07 -1.579e-08 0)
(1.63e-07 -1.548e-08 0)
(1.704e-07 -1.548e-08 0)
(1.802e-07 -1.642e-08 0)
(1.853e-07 -1.755e-08 0)
(1.911e-07 -1.778e-08 0)
(1.997e-07 -1.792e-08 0)
(2.079e-07 -1.909e-08 0)
(2.15e-07 -2.099e-08 0)
(2.229e-07 -2.309e-08 0)
(2.305e-07 -2.451e-08 0)
(2.392e-07 -2.521e-08 0)
(2.523e-07 -2.696e-08 0)
(2.561e-07 -2.726e-08 0)
(2.658e-07 -2.562e-08 0)
(2.686e-07 -2.267e-08 0)
(2.782e-07 -2.084e-08 0)
(2.863e-07 -1.999e-08 0)
(2.989e-07 -2.342e-08 0)
(3.104e-07 -2.89e-08 0)
(3.285e-07 -3.394e-08 0)
(3.562e-07 -3.848e-08 0)
(3.84e-07 -4.05e-08 0)
(4.247e-07 -3.946e-08 0)
(4.578e-07 -4.138e-08 0)
(4.466e-07 -4.595e-08 0)
(4.346e-07 -4.835e-08 0)
(4.213e-07 -4.854e-08 0)
(4.163e-07 -4.281e-08 0)
(3.996e-07 -3.367e-08 0)
(4.066e-07 -3.127e-08 0)
(4.054e-07 -2.776e-08 0)
(4.021e-07 -2.015e-08 0)
(4.016e-07 -1.354e-08 0)
(4.106e-07 -8.873e-09 0)
(4.169e-07 -9.496e-09 0)
(4.256e-07 -1.828e-08 0)
(4.323e-07 -3.388e-08 0)
(4.499e-07 -5.657e-08 0)
(4.508e-07 -7.24e-08 0)
(4.63e-07 -7.2e-08 0)
(4.716e-07 -5.867e-08 0)
(5.054e-07 -4.335e-08 0)
(5.167e-07 -3.358e-08 0)
(5.473e-07 -4.747e-08 0)
(5.636e-07 -7.937e-08 0)
(5.691e-07 -7.922e-08 0)
(5.273e-07 -3.723e-08 0)
(5.605e-07 -8.054e-09 0)
(5.957e-07 1.028e-08 0)
(6.596e-07 2.342e-08 0)
(7.757e-07 9.608e-10 0)
(1.01e-06 -6.581e-08 0)
(1.183e-06 -8.226e-08 0)
(1.272e-06 -6.301e-08 0)
(1.281e-06 -6.304e-08 0)
(1.182e-06 -6.95e-08 0)
(1.295e-06 -1.217e-07 0)
(1.355e-06 -1.898e-07 0)
(1.811e-06 -2.476e-07 0)
(1.906e-06 -1.54e-07 0)
(2.088e-06 1.787e-08 0)
(1.972e-06 1.396e-07 0)
(1.718e-06 1.085e-07 0)
(1.427e-06 1.394e-08 0)
(1.128e-06 -9.125e-08 0)
(9.908e-07 -1.556e-07 0)
(8.587e-07 -1.16e-07 0)
(9.028e-07 -3.466e-08 0)
(9.054e-07 4.174e-08 0)
(9.302e-07 1.067e-07 0)
(9.365e-07 1.338e-07 0)
(9.672e-07 1.197e-07 0)
(9.264e-07 1.07e-07 0)
(8.985e-07 1.1e-07 0)
(9.371e-07 1.162e-07 0)
(9.94e-07 1.44e-07 0)
(1.103e-06 1.617e-07 0)
(1.106e-06 1.216e-07 0)
(1.029e-06 7.039e-08 0)
(9.854e-07 3.413e-08 0)
(9.103e-07 2.915e-08 0)
(9.138e-07 7.649e-08 0)
(8.325e-07 1.156e-07 0)
(7.254e-07 1.095e-07 0)
(6.375e-07 8.207e-08 0)
(6.118e-07 6.283e-08 0)
(5.573e-07 4.311e-08 0)
(5.323e-07 3.758e-08 0)
(5.093e-07 3.526e-08 0)
(4.977e-07 3.368e-08 0)
(4.867e-07 2.973e-08 0)
(4.827e-07 2.137e-08 0)
(4.788e-07 1.054e-08 0)
(4.613e-07 6.577e-09 0)
(4.529e-07 1.131e-08 0)
(4.503e-07 1.631e-08 0)
(4.414e-07 1.762e-08 0)
(4.326e-07 1.676e-08 0)
(4.251e-07 1.441e-08 0)
(4.195e-07 1.171e-08 0)
(4.142e-07 9.709e-09 0)
(4.11e-07 9.181e-09 0)
(4.063e-07 9.814e-09 0)
(4.021e-07 1.003e-08 0)
(3.984e-07 7.921e-09 0)
(3.959e-07 4.691e-09 0)
(3.938e-07 3.112e-09 0)
(3.922e-07 3.522e-09 0)
(3.9e-07 3.118e-09 0)
(3.883e-07 -1.278e-10 0)
(3.9e-07 -4.554e-09 0)
(3.947e-07 -6.512e-09 0)
(3.972e-07 -4.274e-09 0)
(3.957e-07 -3.88e-09 0)
(3.959e-07 -1.114e-08 0)
(4.04e-07 -2.169e-08 0)
(4.201e-07 -2.537e-08 0)
(4.315e-07 -1.247e-08 0)
(4.283e-07 -1.544e-09 0)
(4.265e-07 -1.226e-08 0)
(4.373e-07 -1.815e-08 0)
(4.338e-07 -2.437e-09 0)
(4.403e-07 -3.812e-08 0)
(4.538e-07 -1.989e-08 0)
(4.434e-07 -2.964e-08 0)
(5.054e-07 -1.55e-07 0)
(6.031e-07 -1.599e-07 0)
(7.497e-08 3.783e-07 0)
(2.774e-06 1.429e-06 0)
(0.0001247 -2.392e-05 0)
(0.00485 -0.002837 0)
(0.01138 -0.008235 0)
(0.01753 -0.01393 0)
(0.02291 -0.01965 0)
(2.986e-09 -2.09e-08 0)
(8.962e-09 -2.091e-08 0)
(1.494e-08 -2.091e-08 0)
(2.091e-08 -2.091e-08 0)
(2.689e-08 -2.09e-08 0)
(3.286e-08 -2.09e-08 0)
(3.883e-08 -2.089e-08 0)
(4.481e-08 -2.088e-08 0)
(5.077e-08 -2.087e-08 0)
(5.674e-08 -2.086e-08 0)
(6.27e-08 -2.084e-08 0)
(6.865e-08 -2.082e-08 0)
(7.46e-08 -2.079e-08 0)
(8.054e-08 -2.076e-08 0)
(8.646e-08 -2.073e-08 0)
(9.236e-08 -2.071e-08 0)
(9.826e-08 -2.074e-08 0)
(1.041e-07 -2.08e-08 0)
(1.099e-07 -2.088e-08 0)
(1.156e-07 -2.093e-08 0)
(1.213e-07 -2.102e-08 0)
(1.27e-07 -2.134e-08 0)
(1.327e-07 -2.179e-08 0)
(1.387e-07 -2.205e-08 0)
(1.446e-07 -2.222e-08 0)
(1.507e-07 -2.222e-08 0)
(1.568e-07 -2.176e-08 0)
(1.621e-07 -2.122e-08 0)
(1.692e-07 -2.223e-08 0)
(1.78e-07 -2.485e-08 0)
(1.858e-07 -2.63e-08 0)
(1.971e-07 -2.716e-08 0)
(2.082e-07 -2.849e-08 0)
(2.18e-07 -2.986e-08 0)
(2.259e-07 -3.148e-08 0)
(2.33e-07 -3.332e-08 0)
(2.393e-07 -3.452e-08 0)
(2.529e-07 -3.483e-08 0)
(2.516e-07 -3.24e-08 0)
(2.597e-07 -3.182e-08 0)
(2.664e-07 -3.193e-08 0)
(2.779e-07 -3.305e-08 0)
(2.93e-07 -3.483e-08 0)
(3.121e-07 -3.796e-08 0)
(3.109e-07 -4.142e-08 0)
(3.195e-07 -4.844e-08 0)
(3.216e-07 -5.361e-08 0)
(3.244e-07 -5.611e-08 0)
(3.289e-07 -5.331e-08 0)
(3.459e-07 -4.567e-08 0)
(3.424e-07 -3.774e-08 0)
(3.44e-07 -3.775e-08 0)
(3.492e-07 -4.026e-08 0)
(3.55e-07 -3.933e-08 0)
(3.557e-07 -3.658e-08 0)
(3.642e-07 -3.532e-08 0)
(3.682e-07 -3.086e-08 0)
(3.75e-07 -2.463e-08 0)
(3.826e-07 -1.895e-08 0)
(3.911e-07 -1.444e-08 0)
(3.946e-07 -1.432e-08 0)
(3.995e-07 -2.231e-08 0)
(4.061e-07 -3.913e-08 0)
(4.178e-07 -6.253e-08 0)
(4.244e-07 -7.805e-08 0)
(4.392e-07 -7.87e-08 0)
(4.421e-07 -7.126e-08 0)
(4.588e-07 -6.546e-08 0)
(4.701e-07 -6.308e-08 0)
(5.042e-07 -7.468e-08 0)
(5.6e-07 -9.96e-08 0)
(5.832e-07 -8.991e-08 0)
(5.658e-07 -5.325e-08 0)
(6.095e-07 -4.333e-08 0)
(6.132e-07 -4.705e-08 0)
(6.914e-07 -7.575e-08 0)
(8.395e-07 -1.589e-07 0)
(1.04e-06 -2.372e-07 0)
(9.961e-07 -1.673e-07 0)
(1.085e-06 -9.232e-08 0)
(1.029e-06 -3.474e-08 0)
(9.675e-07 -5.777e-08 0)
(9.887e-07 -1.66e-07 0)
(9.575e-07 -2.747e-07 0)
(1e-06 -2.834e-07 0)
(9.766e-07 -1.738e-07 0)
(1.034e-06 -4.014e-09 0)
(1.001e-06 1.817e-07 0)
(9.635e-07 2.185e-07 0)
(1.025e-06 1.06e-07 0)
(1.178e-06 -5.527e-08 0)
(1.364e-06 -1.812e-07 0)
(1.257e-06 -1.51e-07 0)
(1.325e-06 -3.35e-08 0)
(1.207e-06 7.79e-08 0)
(1.147e-06 1.155e-07 0)
(1.152e-06 1.175e-07 0)
(1.248e-06 1.422e-07 0)
(1.173e-06 1.461e-07 0)
(1.182e-06 1.352e-07 0)
(1.171e-06 1.011e-07 0)
(1.116e-06 8.742e-08 0)
(1.29e-06 1.365e-07 0)
(1.301e-06 1.943e-07 0)
(1.117e-06 2.009e-07 0)
(1.019e-06 1.73e-07 0)
(8.208e-07 1.216e-07 0)
(7.787e-07 1.308e-07 0)
(7.239e-07 1.694e-07 0)
(6.983e-07 1.71e-07 0)
(6.06e-07 1.264e-07 0)
(5.993e-07 1.025e-07 0)
(5.393e-07 7.38e-08 0)
(5.162e-07 5.893e-08 0)
(4.948e-07 4.697e-08 0)
(4.907e-07 3.68e-08 0)
(4.956e-07 2.717e-08 0)
(5.176e-07 2.108e-08 0)
(5.27e-07 2.099e-08 0)
(4.983e-07 2.235e-08 0)
(4.796e-07 2.287e-08 0)
(4.781e-07 2.6e-08 0)
(4.662e-07 2.858e-08 0)
(4.53e-07 2.81e-08 0)
(4.411e-07 2.425e-08 0)
(4.329e-07 1.905e-08 0)
(4.256e-07 1.48e-08 0)
(4.227e-07 1.346e-08 0)
(4.179e-07 1.464e-08 0)
(4.128e-07 1.526e-08 0)
(4.087e-07 1.225e-08 0)
(4.049e-07 7.544e-09 0)
(3.998e-07 5.484e-09 0)
(3.956e-07 7.533e-09 0)
(3.893e-07 8.029e-09 0)
(3.833e-07 1.316e-09 0)
(3.849e-07 -8.695e-09 0)
(3.93e-07 -1.292e-08 0)
(3.979e-07 -4.161e-09 0)
(3.908e-07 2.092e-09 0)
(3.832e-07 -1.268e-08 0)
(3.935e-07 -3.876e-08 0)
(4.267e-07 -5.179e-08 0)
(4.491e-07 -1.541e-08 0)
(4.281e-07 1.696e-08 0)
(4.138e-07 -2.117e-08 0)
(4.465e-07 -3.602e-08 0)
(4.202e-07 3.944e-08 0)
(4.307e-07 -8.293e-08 0)
(4.691e-07 -2.2e-08 0)
(3.38e-07 -8.292e-08 0)
(3.993e-07 -7.491e-08 0)
(1.943e-06 1.584e-06 0)
(3.343e-05 2.584e-06 0)
(0.002182 -0.0005829 0)
(0.008208 -0.005223 0)
(0.01383 -0.009746 0)
(0.01918 -0.01411 0)
(0.02384 -0.01875 0)
(0.02767 -0.02358 0)
(2.986e-09 -2.687e-08 0)
(8.963e-09 -2.689e-08 0)
(1.494e-08 -2.689e-08 0)
(2.092e-08 -2.688e-08 0)
(2.689e-08 -2.688e-08 0)
(3.287e-08 -2.687e-08 0)
(3.884e-08 -2.686e-08 0)
(4.482e-08 -2.685e-08 0)
(5.079e-08 -2.684e-08 0)
(5.676e-08 -2.682e-08 0)
(6.272e-08 -2.68e-08 0)
(6.868e-08 -2.677e-08 0)
(7.463e-08 -2.674e-08 0)
(8.057e-08 -2.669e-08 0)
(8.65e-08 -2.664e-08 0)
(9.238e-08 -2.66e-08 0)
(9.83e-08 -2.66e-08 0)
(1.041e-07 -2.657e-08 0)
(1.097e-07 -2.654e-08 0)
(1.153e-07 -2.657e-08 0)
(1.209e-07 -2.672e-08 0)
(1.265e-07 -2.705e-08 0)
(1.322e-07 -2.761e-08 0)
(1.381e-07 -2.811e-08 0)
(1.442e-07 -2.851e-08 0)
(1.507e-07 -2.892e-08 0)
(1.579e-07 -2.936e-08 0)
(1.665e-07 -3.026e-08 0)
(1.811e-07 -3.271e-08 0)
(1.879e-07 -3.378e-08 0)
(1.853e-07 -3.327e-08 0)
(1.924e-07 -3.497e-08 0)
(1.976e-07 -3.618e-08 0)
(2.042e-07 -3.699e-08 0)
(2.114e-07 -3.81e-08 0)
(2.186e-07 -3.982e-08 0)
(2.237e-07 -4.122e-08 0)
(2.339e-07 -4.112e-08 0)
(2.41e-07 -4.003e-08 0)
(2.564e-07 -4.127e-08 0)
(2.612e-07 -4.088e-08 0)
(2.671e-07 -4.179e-08 0)
(2.685e-07 -4.258e-08 0)
(2.744e-07 -4.294e-08 0)
(2.807e-07 -4.53e-08 0)
(2.875e-07 -5.058e-08 0)
(2.919e-07 -5.509e-08 0)
(2.951e-07 -5.84e-08 0)
(2.976e-07 -5.868e-08 0)
(3.063e-07 -5.386e-08 0)
(3.167e-07 -4.806e-08 0)
(3.29e-07 -4.763e-08 0)
(3.364e-07 -4.828e-08 0)
(3.465e-07 -4.717e-08 0)
(3.523e-07 -4.499e-08 0)
(3.634e-07 -4.356e-08 0)
(3.718e-07 -4.005e-08 0)
(3.812e-07 -3.605e-08 0)
(3.948e-07 -3.179e-08 0)
(4.127e-07 -2.616e-08 0)
(4.299e-07 -2.739e-08 0)
(4.572e-07 -4.506e-08 0)
(5.033e-07 -6.855e-08 0)
(5.34e-07 -8.365e-08 0)
(4.925e-07 -8.179e-08 0)
(4.685e-07 -7.263e-08 0)
(4.489e-07 -6.767e-08 0)
(4.428e-07 -7.411e-08 0)
(4.439e-07 -8.162e-08 0)
(4.557e-07 -9.102e-08 0)
(4.938e-07 -1.122e-07 0)
(5.079e-07 -1.03e-07 0)
(5.497e-07 -8.603e-08 0)
(6.284e-07 -9.577e-08 0)
(6.796e-07 -1.289e-07 0)
(7.513e-07 -2.004e-07 0)
(8.854e-07 -2.773e-07 0)
(8.078e-07 -2.251e-07 0)
(6.868e-07 -1.533e-07 0)
(7.627e-07 -1.041e-07 0)
(7.239e-07 1.237e-08 0)
(6.521e-07 -9.052e-09 0)
(6.539e-07 -1.344e-07 0)
(7.315e-07 -2.665e-07 0)
(9.252e-07 -3.38e-07 0)
(1.161e-06 -2.96e-07 0)
(1.354e-06 -2.214e-08 0)
(1.152e-06 3.473e-07 0)
(8.483e-07 3.196e-07 0)
(7.705e-07 3.172e-08 0)
(8.755e-07 -2.236e-07 0)
(1.301e-06 -4.496e-07 0)
(1.337e-06 -2.8e-07 0)
(1.396e-06 1.146e-07 0)
(1.133e-06 2.886e-07 0)
(1.075e-06 2.498e-07 0)
(8.795e-07 1.406e-07 0)
(9.224e-07 1.253e-07 0)
(9.074e-07 1.864e-07 0)
(8.265e-07 2.207e-07 0)
(6.791e-07 1.689e-07 0)
(5.576e-07 1.039e-07 0)
(5.167e-07 8.763e-08 0)
(5.371e-07 1.199e-07 0)
(5.812e-07 1.558e-07 0)
(6.967e-07 1.897e-07 0)
(7.348e-07 1.984e-07 0)
(7.026e-07 1.917e-07 0)
(6.53e-07 1.9e-07 0)
(7.367e-07 2.129e-07 0)
(6.584e-07 1.787e-07 0)
(6.857e-07 1.675e-07 0)
(5.994e-07 1.327e-07 0)
(5.613e-07 1.028e-07 0)
(5.158e-07 7.395e-08 0)
(4.943e-07 5.054e-08 0)
(4.684e-07 3.178e-08 0)
(4.536e-07 2.413e-08 0)
(4.35e-07 2.695e-08 0)
(4.313e-07 3.044e-08 0)
(4.278e-07 2.9e-08 0)
(4.28e-07 3.063e-08 0)
(4.233e-07 3.52e-08 0)
(4.168e-07 3.672e-08 0)
(4.097e-07 3.197e-08 0)
(4.056e-07 2.361e-08 0)
(4.047e-07 1.637e-08 0)
(4.07e-07 1.437e-08 0)
(4.061e-07 1.839e-08 0)
(3.999e-07 2.188e-08 0)
(3.933e-07 1.741e-08 0)
(3.904e-07 8.973e-09 0)
(3.931e-07 5.35e-09 0)
(3.937e-07 1.325e-08 0)
(3.825e-07 1.898e-08 0)
(3.704e-07 5.658e-09 0)
(3.738e-07 -1.762e-08 0)
(3.96e-07 -2.949e-08 0)
(4.097e-07 -2.093e-09 0)
(3.863e-07 2.463e-08 0)
(3.548e-07 -5.839e-09 0)
(3.648e-07 -6.98e-08 0)
(4.434e-07 -1.147e-07 0)
(5.002e-07 -1.02e-08 0)
(4.226e-07 9.338e-08 0)
(3.736e-07 -4.067e-08 0)
(4.981e-07 -1.468e-07 0)
(3.874e-07 1.671e-07 0)
(3.841e-07 -3.211e-07 0)
(5.165e-07 3.873e-07 0)
(1.899e-06 2.146e-06 0)
(4.166e-05 6.463e-06 0)
(0.00132 -0.0002487 0)
(0.006458 -0.003017 0)
(0.01189 -0.007075 0)
(0.01703 -0.01098 0)
(0.02151 -0.01463 0)
(0.02551 -0.01837 0)
(0.0289 -0.02229 0)
(0.03158 -0.02631 0)
(2.986e-09 -3.285e-08 0)
(8.965e-09 -3.287e-08 0)
(1.494e-08 -3.286e-08 0)
(2.092e-08 -3.286e-08 0)
(2.69e-08 -3.286e-08 0)
(3.288e-08 -3.285e-08 0)
(3.885e-08 -3.284e-08 0)
(4.483e-08 -3.283e-08 0)
(5.08e-08 -3.281e-08 0)
(5.678e-08 -3.279e-08 0)
(6.275e-08 -3.277e-08 0)
(6.872e-08 -3.273e-08 0)
(7.468e-08 -3.269e-08 0)
(8.062e-08 -3.263e-08 0)
(8.656e-08 -3.256e-08 0)
(9.245e-08 -3.249e-08 0)
(9.837e-08 -3.241e-08 0)
(1.041e-07 -3.228e-08 0)
(1.097e-07 -3.216e-08 0)
(1.153e-07 -3.212e-08 0)
(1.207e-07 -3.226e-08 0)
(1.26e-07 -3.254e-08 0)
(1.316e-07 -3.339e-08 0)
(1.375e-07 -3.412e-08 0)
(1.435e-07 -3.466e-08 0)
(1.494e-07 -3.537e-08 0)
(1.551e-07 -3.641e-08 0)
(1.596e-07 -3.756e-08 0)
(1.668e-07 -3.809e-08 0)
(1.722e-07 -3.682e-08 0)
(1.767e-07 -3.714e-08 0)
(1.837e-07 -3.991e-08 0)
(1.899e-07 -4.207e-08 0)
(1.964e-07 -4.383e-08 0)
(2.042e-07 -4.55e-08 0)
(2.12e-07 -4.698e-08 0)
(2.176e-07 -4.805e-08 0)
(2.24e-07 -4.851e-08 0)
(2.303e-07 -4.851e-08 0)
(2.369e-07 -4.777e-08 0)
(2.433e-07 -4.633e-08 0)
(2.515e-07 -4.66e-08 0)
(2.596e-07 -4.828e-08 0)
(2.676e-07 -5.07e-08 0)
(2.753e-07 -5.355e-08 0)
(2.82e-07 -5.722e-08 0)
(2.874e-07 -6.044e-08 0)
(2.917e-07 -6.28e-08 0)
(2.953e-07 -6.359e-08 0)
(2.994e-07 -6.15e-08 0)
(3.058e-07 -5.806e-08 0)
(3.137e-07 -5.616e-08 0)
(3.218e-07 -5.548e-08 0)
(3.298e-07 -5.437e-08 0)
(3.384e-07 -5.311e-08 0)
(3.477e-07 -5.191e-08 0)
(3.583e-07 -5.014e-08 0)
(3.712e-07 -4.941e-08 0)
(3.861e-07 -4.939e-08 0)
(4.027e-07 -4.78e-08 0)
(4.367e-07 -5.066e-08 0)
(4.609e-07 -6.573e-08 0)
(4.378e-07 -6.953e-08 0)
(4.274e-07 -6.09e-08 0)
(4.151e-07 -5.687e-08 0)
(4.138e-07 -5.29e-08 0)
(4.257e-07 -5.597e-08 0)
(4.496e-07 -7.863e-08 0)
(4.695e-07 -1.008e-07 0)
(5.104e-07 -1.197e-07 0)
(6.075e-07 -1.589e-07 0)
(5.904e-07 -1.563e-07 0)
(6.122e-07 -1.395e-07 0)
(6.268e-07 -1.343e-07 0)
(5.746e-07 -1.452e-07 0)
(5.478e-07 -1.854e-07 0)
(4.762e-07 -1.641e-07 0)
(4.185e-07 -1.277e-07 0)
(4.029e-07 -1.371e-07 0)
(4.686e-07 -1.434e-07 0)
(5.112e-07 -3.864e-09 0)
(5.898e-07 -3.07e-08 0)
(7.242e-07 -3.754e-07 0)
(1.055e-06 -8.321e-07 0)
(1.434e-06 -9.355e-07 0)
(1.743e-06 -8.232e-07 0)
(1.829e-06 -8.793e-09 0)
(1.419e-06 1.229e-06 0)
(8.491e-07 8.62e-07 0)
(8.074e-07 -1.08e-07 0)
(9.55e-07 -4.307e-07 0)
(7.424e-07 -4.204e-07 0)
(6.157e-07 -1.935e-07 0)
(6.38e-07 2.02e-07 0)
(5.091e-07 3.534e-07 0)
(4.105e-07 2.363e-07 0)
(4.171e-07 1.139e-07 0)
(4.873e-07 5.789e-08 0)
(5.396e-07 1.576e-07 0)
(5.042e-07 2.603e-07 0)
(4.478e-07 2.25e-07 0)
(4.286e-07 1.536e-07 0)
(4.39e-07 1.028e-07 0)
(4.683e-07 1.116e-07 0)
(4.81e-07 1.331e-07 0)
(4.905e-07 1.363e-07 0)
(5.009e-07 1.555e-07 0)
(5.137e-07 1.824e-07 0)
(5.181e-07 1.847e-07 0)
(5.187e-07 1.82e-07 0)
(4.961e-07 1.701e-07 0)
(4.977e-07 1.647e-07 0)
(4.811e-07 1.51e-07 0)
(4.711e-07 1.258e-07 0)
(4.52e-07 9.57e-08 0)
(4.378e-07 6.847e-08 0)
(4.242e-07 4.822e-08 0)
(4.172e-07 3.695e-08 0)
(4.136e-07 3.235e-08 0)
(4.163e-07 3.006e-08 0)
(4.182e-07 2.917e-08 0)
(4.199e-07 3.294e-08 0)
(4.159e-07 4.111e-08 0)
(4.058e-07 4.652e-08 0)
(3.936e-07 3.999e-08 0)
(3.879e-07 2.496e-08 0)
(3.921e-07 1.197e-08 0)
(4.013e-07 9.829e-09 0)
(4.035e-07 2.278e-08 0)
(3.894e-07 3.531e-08 0)
(3.725e-07 2.493e-08 0)
(3.731e-07 2.806e-09 0)
(3.934e-07 -7.817e-09 0)
(4.042e-07 1.9e-08 0)
(3.787e-07 4.437e-08 0)
(3.452e-07 1.698e-08 0)
(3.486e-07 -3.872e-08 0)
(4.078e-07 -7.59e-08 0)
(4.516e-07 4.941e-09 0)
(3.869e-07 9.758e-08 0)
(2.888e-07 3.702e-08 0)
(2.847e-07 -1.229e-07 0)
(4.864e-07 -3.201e-07 0)
(6.573e-07 -3.232e-08 0)
(3.983e-07 2.943e-07 0)
(1.76e-07 -1.748e-07 0)
(6.951e-07 9.069e-09 0)
(7.327e-07 1.194e-06 0)
(5.499e-06 2.8e-06 0)
(0.0001029 8.606e-07 0)
(0.002369 -0.0004344 0)
(0.007056 -0.002337 0)
(0.01181 -0.005788 0)
(0.01647 -0.008903 0)
(0.02072 -0.0119 0)
(0.02453 -0.01506 0)
(0.02785 -0.01823 0)
(0.03072 -0.02147 0)
(0.03308 -0.02479 0)
(0.03486 -0.02814 0)
(2.987e-09 -3.882e-08 0)
(8.967e-09 -3.884e-08 0)
(1.495e-08 -3.884e-08 0)
(2.093e-08 -3.884e-08 0)
(2.69e-08 -3.883e-08 0)
(3.288e-08 -3.883e-08 0)
(3.886e-08 -3.882e-08 0)
(4.485e-08 -3.88e-08 0)
(5.082e-08 -3.879e-08 0)
(5.681e-08 -3.877e-08 0)
(6.279e-08 -3.874e-08 0)
(6.876e-08 -3.87e-08 0)
(7.473e-08 -3.865e-08 0)
(8.069e-08 -3.858e-08 0)
(8.665e-08 -3.85e-08 0)
(9.256e-08 -3.839e-08 0)
(9.85e-08 -3.824e-08 0)
(1.043e-07 -3.8e-08 0)
(1.099e-07 -3.762e-08 0)
(1.153e-07 -3.723e-08 0)
(1.206e-07 -3.725e-08 0)
(1.256e-07 -3.741e-08 0)
(1.312e-07 -3.883e-08 0)
(1.368e-07 -4.013e-08 0)
(1.429e-07 -4.056e-08 0)
(1.486e-07 -4.106e-08 0)
(1.54e-07 -4.177e-08 0)
(1.585e-07 -4.273e-08 0)
(1.641e-07 -4.348e-08 0)
(1.693e-07 -4.32e-08 0)
(1.742e-07 -4.374e-08 0)
(1.806e-07 -4.626e-08 0)
(1.871e-07 -4.881e-08 0)
(1.94e-07 -5.117e-08 0)
(2.018e-07 -5.303e-08 0)
(2.093e-07 -5.396e-08 0)
(2.154e-07 -5.421e-08 0)
(2.216e-07 -5.448e-08 0)
(2.281e-07 -5.493e-08 0)
(2.351e-07 -5.512e-08 0)
(2.421e-07 -5.478e-08 0)
(2.5e-07 -5.534e-08 0)
(2.578e-07 -5.665e-08 0)
(2.654e-07 -5.851e-08 0)
(2.726e-07 -6.075e-08 0)
(2.793e-07 -6.33e-08 0)
(2.852e-07 -6.56e-08 0)
(2.905e-07 -6.725e-08 0)
(2.955e-07 -6.786e-08 0)
(3.009e-07 -6.715e-08 0)
(3.074e-07 -6.569e-08 0)
(3.147e-07 -6.456e-08 0)
(3.223e-07 -6.38e-08 0)
(3.301e-07 -6.307e-08 0)
(3.384e-07 -6.239e-08 0)
(3.474e-07 -6.206e-08 0)
(3.576e-07 -6.216e-08 0)
(3.692e-07 -6.349e-08 0)
(3.822e-07 -6.653e-08 0)
(3.922e-07 -7.04e-08 0)
(4.16e-07 -7.218e-08 0)
(4.532e-07 -7.062e-08 0)
(4.331e-07 -6.324e-08 0)
(4.442e-07 -6.483e-08 0)
(4.692e-07 -7.316e-08 0)
(4.588e-07 -7.279e-08 0)
(5.294e-07 -9.721e-08 0)
(6.195e-07 -1.455e-07 0)
(6.364e-07 -1.687e-07 0)
(6.093e-07 -1.717e-07 0)
(6.944e-07 -1.715e-07 0)
(5.094e-07 -1.116e-07 0)
(4.84e-07 -1.098e-07 0)
(4.684e-07 -9.46e-08 0)
(4.433e-07 -1.072e-07 0)
(4.474e-07 -1.663e-07 0)
(4.393e-07 -1.415e-07 0)
(3.838e-07 -9.513e-08 0)
(3.496e-07 -1.751e-07 0)
(4.77e-07 -2.91e-07 0)
(4.638e-07 6.114e-08 0)
(2.384e-07 1.298e-09 0)
(1.733e-07 -3.34e-07 0)
(4.025e-07 -5.391e-07 0)
(5.955e-07 -5.355e-07 0)
(7.614e-07 -5.307e-07 0)
(1.014e-06 2.2e-07 0)
(9.981e-07 9.604e-07 0)
(2.481e-06 1.445e-06 0)
(1.289e-05 1.195e-06 0)
(9.339e-06 -1.141e-06 0)
(2.399e-06 -9.829e-07 0)
(1.088e-06 -5.765e-07 0)
(9.807e-07 4.491e-08 0)
(5.066e-07 5.134e-07 0)
(2.128e-07 2.961e-07 0)
(2.801e-07 6.175e-08 0)
(5.165e-07 -8.536e-08 0)
(6.785e-07 2.084e-07 0)
(5.371e-07 4.531e-07 0)
(3.612e-07 2.942e-07 0)
(3.425e-07 1.423e-07 0)
(4.068e-07 4.386e-08 0)
(4.86e-07 7.359e-08 0)
(4.959e-07 1.484e-07 0)
(4.859e-07 1.388e-07 0)
(4.931e-07 1.648e-07 0)
(4.705e-07 2.011e-07 0)
(4.432e-07 1.896e-07 0)
(4.451e-07 1.795e-07 0)
(4.562e-07 1.783e-07 0)
(4.583e-07 1.821e-07 0)
(4.457e-07 1.674e-07 0)
(4.376e-07 1.427e-07 0)
(4.265e-07 1.128e-07 0)
(4.166e-07 8.345e-08 0)
(4.045e-07 5.822e-08 0)
(4.016e-07 4.068e-08 0)
(4.029e-07 2.97e-08 0)
(4.115e-07 2.43e-08 0)
(4.202e-07 2.451e-08 0)
(4.265e-07 3.258e-08 0)
(4.223e-07 5.03e-08 0)
(4.009e-07 6.632e-08 0)
(3.742e-07 5.488e-08 0)
(3.647e-07 2.379e-08 0)
(3.787e-07 -2.923e-09 0)
(4.072e-07 -7.437e-09 0)
(4.212e-07 2.837e-08 0)
(3.906e-07 6.796e-08 0)
(3.479e-07 4.149e-08 0)
(3.482e-07 -1.71e-08 0)
(4.055e-07 -5.147e-08 0)
(4.448e-07 2.909e-08 0)
(3.804e-07 1.169e-07 0)
(2.873e-07 6.035e-08 0)
(2.809e-07 -7.822e-08 0)
(4.397e-07 -2.325e-07 0)
(5.833e-07 -2.277e-08 0)
(4.19e-07 2.756e-07 0)
(1.35e-07 1.103e-07 0)
(8.824e-09 -2.098e-07 0)
(5.452e-07 -5.41e-07 0)
(1.225e-06 3.686e-07 0)
(1.101e-06 1.487e-06 0)
(5.189e-06 3.041e-06 0)
(8.688e-05 6.269e-06 0)
(0.001442 -0.0001961 0)
(0.005197 -0.000979 0)
(0.009395 -0.003066 0)
(0.01344 -0.005609 0)
(0.01747 -0.007757 0)
(0.02127 -0.01011 0)
(0.02477 -0.01266 0)
(0.02792 -0.01529 0)
(0.03068 -0.01804 0)
(0.03305 -0.02081 0)
(0.03501 -0.02361 0)
(0.03654 -0.02643 0)
(0.03758 -0.02923 0)
(2.987e-09 -4.48e-08 0)
(8.969e-09 -4.483e-08 0)
(1.495e-08 -4.482e-08 0)
(2.093e-08 -4.482e-08 0)
(2.691e-08 -4.481e-08 0)
(3.289e-08 -4.481e-08 0)
(3.888e-08 -4.48e-08 0)
(4.486e-08 -4.479e-08 0)
(5.085e-08 -4.477e-08 0)
(5.685e-08 -4.476e-08 0)
(6.284e-08 -4.472e-08 0)
(6.881e-08 -4.467e-08 0)
(7.479e-08 -4.462e-08 0)
(8.077e-08 -4.455e-08 0)
(8.675e-08 -4.447e-08 0)
(9.274e-08 -4.436e-08 0)
(9.875e-08 -4.421e-08 0)
(1.049e-07 -4.399e-08 0)
(1.109e-07 -4.368e-08 0)
(1.177e-07 -4.365e-08 0)
(1.248e-07 -4.364e-08 0)
(1.285e-07 -4.259e-08 0)
(1.36e-07 -4.421e-08 0)
(1.369e-07 -4.482e-08 0)
(1.427e-07 -4.603e-08 0)
(1.482e-07 -4.649e-08 0)
(1.534e-07 -4.685e-08 0)
(1.58e-07 -4.743e-08 0)
(1.629e-07 -4.8e-08 0)
(1.681e-07 -4.842e-08 0)
(1.725e-07 -4.93e-08 0)
(1.784e-07 -5.247e-08 0)
(1.851e-07 -5.583e-08 0)
(1.931e-07 -5.919e-08 0)
(2.024e-07 -6.117e-08 0)
(2.101e-07 -6.122e-08 0)
(2.155e-07 -6.057e-08 0)
(2.218e-07 -6.093e-08 0)
(2.297e-07 -6.206e-08 0)
(2.352e-07 -6.202e-08 0)
(2.417e-07 -6.199e-08 0)
(2.49e-07 -6.281e-08 0)
(2.563e-07 -6.412e-08 0)
(2.635e-07 -6.578e-08 0)
(2.705e-07 -6.767e-08 0)
(2.772e-07 -6.966e-08 0)
(2.835e-07 -7.145e-08 0)
(2.895e-07 -7.278e-08 0)
(2.954e-07 -7.344e-08 0)
(3.016e-07 -7.331e-08 0)
(3.083e-07 -7.265e-08 0)
(3.155e-07 -7.193e-08 0)
(3.229e-07 -7.134e-08 0)
(3.306e-07 -7.091e-08 0)
(3.385e-07 -7.079e-08 0)
(3.47e-07 -7.122e-08 0)
(3.562e-07 -7.241e-08 0)
(3.661e-07 -7.479e-08 0)
(3.765e-07 -7.869e-08 0)
(3.847e-07 -8.405e-08 0)
(3.871e-07 -8.423e-08 0)
(4.09e-07 -7.538e-08 0)
(4.126e-07 -6.772e-08 0)
(4.389e-07 -8.256e-08 0)
(4.949e-07 -1.066e-07 0)
(4.895e-07 -1.185e-07 0)
(5.697e-07 -1.516e-07 0)
(5.444e-07 -1.443e-07 0)
(4.541e-07 -1.174e-07 0)
(4.124e-07 -1.191e-07 0)
(3.972e-07 -8.849e-08 0)
(3.868e-07 -7.503e-08 0)
(4.239e-07 -1.216e-07 0)
(4.391e-07 -7.46e-08 0)
(3.848e-07 -7.538e-08 0)
(4.154e-07 -2.236e-07 0)