/*--------------------------------*- C++ -*----------------------------------*\
| =========                 |                                                 |
| \\      /  F ield         | OpenFOAM: The Open Source CFD Toolbox           |
|  \\    /   O peration     | Version:  5.x                                   |
|   \\  /    A nd           | Web:      www.OpenFOAM.org                      |
|    \\/     M anipulation  |                                                 |
\*---------------------------------------------------------------------------*/
FoamFile
{
    version     2.0;
    format      ascii;
    class       volScalarField;
    location    "95";
    object      gamma;
}
// * * * * * * * * * * * * * * * * * * * * * * * * * * * * * * * * * * * * * //

dimensions      [0 0 0 0 0 0 0];

internalField   nonuniform List<scalar> 
86400
(
3.236e-05
4.273e-05
6.682e-05
0.0001304
0.0002688
0.0004718
0.0006427
0.0008943
0.001319
0.001779
0.002572
0.003548
0.005279
0.007327
0.009661
0.01026
0.01054
0.007552
0.006274
0.006083
0.006811
0.007599
0.009404
0.008868
0.008607
0.01069
0.01154
0.01214
0.01157
0.01122
0.01081
0.01142
0.01214
0.01276
0.01351
0.01513
0.01495
0.01374
0.01106
0.009774
0.00862
0.008735
0.008237
0.007345
0.007258
0.007955
0.009534
0.01067
0.01146
0.011
0.01103
0.01128
0.0115
0.01152
0.01141
0.0119
0.01264
0.01304
0.01307
0.01274
0.01163
0.01148
0.01086
0.01103
0.01244
0.01468
0.01677
0.01777
0.01579
0.01456
0.01527
0.01683
0.01894
0.01748
0.01595
0.01421
0.01256
0.0127
0.01458
0.01671
0.02063
0.02302
0.02291
0.022
0.02159
0.02007
0.02024
0.01971
0.02015
0.02069
0.01994
0.02194
0.02494
0.03113
0.03457
0.03643
0.03299
0.03152
0.03064
0.02967
0.02856
0.02922
0.02662
0.02273
0.01636
0.01521
0.01675
0.02403
0.02888
0.03228
0.02947
0.02806
0.02538
0.02128
0.01595
0.01305
0.01195
0.01165
0.01092
0.009976
0.009271
0.00872
0.00889
0.008835
0.008728
0.008707
0.008576
0.008325
0.007676
0.006567
0.005175
0.004663
0.004556
0.004842
0.005299
0.006059
0.006758
0.007698
0.005348
0.002709
0.001551
0.00166
0.002386
0.003692
0.003549
0.002574
0.002107
0.002482
0.003198
0.003734
0.004026
0.004468
0.005811
0.006354
0.00694
0.007819
0.007679
0.008051
0.1006
0.9549
4.395e-05
5.259e-05
7.658e-05
0.0001275
0.0002362
0.0003849
0.0005051
0.0006816
0.0009251
0.001018
0.001429
0.002207
0.00393
0.006805
0.009698
0.009592
0.008414
0.006869
0.007176
0.009068
0.01263
0.01735
0.0216
0.02097
0.01953
0.01895
0.01653
0.01377
0.01148
0.009911
0.009395
0.01086
0.01306
0.01563
0.01818
0.02084
0.02132
0.02093
0.01877
0.01724
0.01514
0.01458
0.01387
0.01286
0.01257
0.01349
0.01464
0.01574
0.01676
0.0169
0.01774
0.01893
0.02004
0.02074
0.0205
0.01894
0.0171
0.01551
0.01418
0.01357
0.013
0.01318
0.01257
0.01294
0.01468
0.01869
0.02157
0.02314
0.02124
0.02042
0.02159
0.0221
0.02096
0.01758
0.01516
0.01474
0.01712
0.02118
0.02527
0.02751
0.03111
0.0336
0.0363
0.03771
0.0387
0.03719
0.03776
0.03686
0.03854
0.04112
0.042
0.04567
0.04855
0.0501
0.04903
0.04699
0.04213
0.03796
0.03363
0.03185
0.03179
0.03547
0.03859
0.03425
0.02347
0.01967
0.02019
0.02505
0.03234
0.03765
0.03446
0.03441
0.03567
0.03579
0.03331
0.03084
0.02941
0.02934
0.0279
0.02491
0.02299
0.02126
0.02107
0.02103
0.02086
0.02086
0.02042
0.01959
0.01743
0.01447
0.01106
0.009885
0.009628
0.01123
0.01306
0.0147
0.01548
0.01606
0.01193
0.007272
0.005818
0.006056
0.006939
0.008952
0.009592
0.008266
0.007884
0.009561
0.0124
0.01289
0.01178
0.01109
0.01244
0.01522
0.02334
0.04092
0.06947
0.1591
0.4576
0.9186
7.356e-05
8.296e-05
0.0001049
0.0001419
0.0002287
0.0003311
0.0004069
0.0005349
0.0006592
0.0007278
0.001053
0.001857
0.003496
0.00646
0.009034
0.009264
0.009014
0.009166
0.01007
0.01387
0.01816
0.02513
0.03049
0.02916
0.02889
0.03097
0.0287
0.02418
0.0197
0.01578
0.01509
0.01868
0.02266
0.02543
0.02596
0.02571
0.02429
0.02381
0.02192
0.02036
0.01807
0.01758
0.01679
0.01692
0.01781
0.02002
0.02174
0.02351
0.02548
0.02359
0.02079
0.01792
0.01577
0.01481
0.01538
0.01458
0.01384
0.01298
0.01267
0.01269
0.01312
0.01395
0.01403
0.01567
0.01728
0.0195
0.02137
0.02259
0.02133
0.02078
0.02112
0.01919
0.01697
0.01583
0.01643
0.02168
0.03085
0.04025
0.04604
0.04907
0.05206
0.05459
0.05855
0.06191
0.06649
0.06512
0.06442
0.06112
0.05348
0.0449
0.03595
0.02987
0.02904
0.0328
0.03601
0.03851
0.0388
0.03379
0.02959
0.02866
0.02929
0.0327
0.03645
0.03155
0.02253
0.02025
0.02304
0.03033
0.04224
0.04707
0.04519
0.05046
0.05705
0.06041
0.05727
0.05412
0.04953
0.04788
0.04381
0.0385
0.03389
0.0322
0.03176
0.03182
0.03167
0.03175
0.03115
0.02992
0.02633
0.02215
0.01767
0.01596
0.01542
0.01776
0.02183
0.02582
0.0287
0.03078
0.02662
0.021
0.01932
0.01989
0.02193
0.02557
0.02736
0.02429
0.02237
0.02388
0.02801
0.02753
0.0268
0.02545
0.03166
0.04549
0.08571
0.2041
0.4695
0.7564
0.8773
0.9699
0.0001542
0.0001577
0.0001666
0.0001793
0.000228
0.0002629
0.0002805
0.0003425
0.0004208
0.0005089
0.0007996
0.0009894
0.001303
0.002007
0.00308
0.003678
0.004913
0.00468
0.003596
0.003794
0.004378
0.005302
0.007464
0.008878
0.01055
0.01422
0.01696
0.01699
0.01634
0.0149
0.01491
0.02027
0.02671
0.03148
0.03112
0.02882
0.02615
0.02643
0.02571
0.02543
0.02448
0.02605
0.02884
0.03327
0.0323
0.02909
0.0235
0.01959
0.01828
0.01624
0.01314
0.01108
0.01039
0.009859
0.0105
0.009617
0.00847
0.00814
0.009517
0.01139
0.01345
0.01562
0.01698
0.01877
0.01996
0.02089
0.02076
0.0204
0.01885
0.02114
0.02429
0.02279
0.0221
0.02332
0.02389
0.03425
0.04949
0.05985
0.05969
0.06208
0.05765
0.0539
0.05283
0.0507
0.04911
0.04834
0.04649
0.04394
0.04024
0.03796
0.03515
0.03118
0.03152
0.03455
0.03649
0.03776
0.03955
0.03351
0.02945
0.02908
0.031
0.03581
0.04267
0.03894
0.02846
0.02211
0.02129
0.02593
0.03265
0.03578
0.03455
0.03689
0.03855
0.04809
0.05486
0.0647
0.06911
0.0758
0.06961
0.06256
0.05365
0.05254
0.05177
0.05213
0.05215
0.05252
0.05188
0.05114
0.04747
0.04268
0.03638
0.03442
0.03481
0.0374
0.04109
0.04253
0.04192
0.03966
0.04154
0.04314
0.04695
0.04812
0.04991
0.05225
0.05817
0.0604
0.06262
0.06707
0.07924
0.07878
0.08353
0.08761
0.1154
0.1887
0.3568
0.6237
0.8191
0.9471
0.9865
0.9979
0.0003796
0.0003412
0.0003097
0.0002823
0.0002685
0.0002527
0.0002242
0.0002549
0.0003271
0.0003978
0.0005958
0.0004766
0.0002954
0.000348
0.0006892
0.001288
0.003413
0.002816
0.001506
0.001069
0.001236
0.001534
0.002411
0.002537
0.003306
0.006023
0.01209
0.02019
0.02723
0.02223
0.0164
0.01615
0.01585
0.01574
0.01552
0.01416
0.01203
0.01387
0.01775
0.02317
0.02289
0.01916
0.01359
0.01116
0.008608
0.007026
0.006125
0.006504
0.00835
0.01002
0.009103
0.007166
0.007611
0.008279
0.009307
0.008239
0.006688
0.0068
0.008975
0.01295
0.01804
0.02343
0.02844
0.03128
0.02919
0.0235
0.02023
0.01708
0.01398
0.01389
0.01579
0.01505
0.01806
0.02408
0.02831
0.03473
0.04341
0.04383
0.04101
0.04503
0.04114
0.03657
0.03508
0.03466
0.03569
0.03982
0.04102
0.03888
0.03654
0.03602
0.03264
0.03085
0.03351
0.03732
0.04384
0.04558
0.04706
0.0396
0.03622
0.0332
0.02801
0.02513
0.02834
0.02925
0.0281
0.02796
0.02816
0.03155
0.03435
0.03349
0.02844
0.02714
0.02581
0.03437
0.03689
0.04072
0.03929
0.04099
0.03459
0.03407
0.03155
0.03244
0.03202
0.03224
0.03235
0.03265
0.03263
0.03391
0.03476
0.03536
0.03484
0.0345
0.03434
0.03339
0.03375
0.03298
0.03317
0.03456
0.04014
0.0456
0.0536
0.05927
0.06423
0.07172
0.08505
0.09208
0.09665
0.09853
0.1181
0.132
0.1773
0.2599
0.4292
0.5797
0.6969
0.8232
0.9284
0.9841
0.9971
0.9996
0.0007632
0.0006391
0.0005496
0.0004693
0.0003522
0.0002691
0.0002288
0.0002462
0.0003312
0.0004313
0.0006337
0.0003244
0.0001153
8.42e-05
0.0002577
0.0005755
0.002015
0.001715
0.0008395
0.0005152
0.0007464
0.000982
0.001557
0.00117
0.001126
0.001541
0.002656
0.00575
0.01096
0.01014
0.006975
0.005642
0.004956
0.00487
0.005918
0.006083
0.004464
0.004312
0.005118
0.005037
0.00343
0.002299
0.001099
0.0006336
0.0004219
0.0002522
0.0001479
0.0001687
0.0002964
0.0005384
0.0007159
0.0009067
0.00138
0.002651
0.003927
0.003546
0.00238
0.002192
0.00307
0.005918
0.0105
0.01549
0.01777
0.01982
0.019
0.01505
0.01571
0.01452
0.01197
0.01163
0.01431
0.01421
0.01882
0.02504
0.02621
0.02643
0.02742
0.02821
0.03165
0.0419
0.04576
0.0455
0.04307
0.04373
0.04651
0.05449
0.0603
0.06034
0.06249
0.06803
0.07622
0.07285
0.07485
0.07403
0.07134
0.06889
0.06507
0.05734
0.05862
0.05669
0.04788
0.03918
0.0375
0.03656
0.03802
0.03709
0.02964
0.02983
0.0292
0.02623
0.01782
0.01348
0.01034
0.01359
0.01615
0.01954
0.0194
0.01873
0.01601
0.01617
0.01504
0.01531
0.01515
0.01522
0.01533
0.01554
0.01596
0.01775
0.02012
0.023
0.02525
0.02733
0.02965
0.03029
0.03256
0.032
0.03486
0.03848
0.0464
0.05252
0.06135
0.06858
0.07597
0.08671
0.1065
0.1258
0.1509
0.1847
0.2523
0.3618
0.5304
0.6444
0.7588
0.8278
0.8845
0.9384
0.9778
0.995
0.9991
0.9998
0.001297
0.0009933
0.0007985
0.0005993
0.0004645
0.0003764
0.0003626
0.000413
0.0006087
0.000721
0.0007965
0.0003288
7.324e-05
4.773e-05
0.0001324
0.0004315
0.002334
0.003697
0.002138
0.0015
0.002513
0.002879
0.003783
0.002135
0.001406
0.001433
0.002066
0.003643
0.007306
0.007269
0.0053
0.003279
0.002697
0.002899
0.003929
0.004171
0.002559
0.001977
0.002304
0.001883
0.0008294
0.000322
7.869e-05
2.718e-05
1.57e-05
6.272e-06
3.458e-06
5.179e-06
1.603e-05
4.826e-05
9.98e-05
0.0001106
0.0001213
0.0001762
0.0001873
0.0002179
0.000274
0.0004941
0.001224
0.003309
0.006221
0.01038
0.01347
0.01846
0.01986
0.01457
0.01529
0.01399
0.01223
0.01114
0.01461
0.01465
0.02317
0.03313
0.03708
0.03611
0.03702
0.03929
0.04485
0.06057
0.07356
0.08335
0.09158
0.1013
0.1081
0.111
0.1079
0.09817
0.1074
0.134
0.1512
0.1509
0.1463
0.1377
0.1302
0.1164
0.09202
0.07172
0.06957
0.06749
0.06438
0.05339
0.05094
0.05672
0.06905
0.06953
0.05669
0.0517
0.04441
0.03312
0.02162
0.01368
0.009448
0.01127
0.01381
0.01484
0.01353
0.01181
0.009978
0.01029
0.009946
0.01012
0.01021
0.01035
0.01061
0.01097
0.01153
0.01322
0.01586
0.01949
0.02294
0.02644
0.03019
0.0319
0.03631
0.04352
0.05387
0.06618
0.08639
0.1021
0.121
0.143
0.1688
0.2039
0.2718
0.3736
0.4889
0.5786
0.6623
0.7376
0.8135
0.8715
0.9282
0.9561
0.9754
0.9875
0.9958
0.9986
0.9997
0.9999
0.002527
0.001627
0.001149
0.0008289
0.0006701
0.0005821
0.0006879
0.00086
0.0009549
0.0006485
0.0005398
0.0002041
4.827e-05
4.753e-05
0.0001619
0.0006643
0.004027
0.009367
0.008213
0.009079
0.01212
0.01264
0.01392
0.008063
0.004661
0.002558
0.001821
0.002071
0.003463
0.004027
0.003709
0.003113
0.002711
0.003316
0.00495
0.005821
0.003669
0.002842
0.002833
0.001183
0.0002877
5.352e-05
9.481e-06
2.833e-06
2.543e-06
1.141e-06
6.485e-07
8.04e-07
1.351e-06
3.681e-06
8.703e-06
1.007e-05
1.325e-05
2.216e-05
2.276e-05
2.527e-05
4.46e-05
0.0001296
0.0004834
0.001915
0.004382
0.008144
0.0122
0.02082
0.02373
0.01843
0.0178
0.01637
0.0151
0.01606
0.02216
0.02479
0.0361
0.05078
0.06053
0.06439
0.06765
0.08262
0.1006
0.1287
0.1418
0.1503
0.1649
0.1915
0.2144
0.2234
0.193
0.1541
0.1612
0.2327
0.3437
0.4554
0.4373
0.401
0.3643
0.3096
0.2373
0.1827
0.1501
0.1424
0.1561
0.1569
0.1512
0.1323
0.1228
0.1034
0.08204
0.07423
0.06678
0.05139
0.03434
0.01812
0.01298
0.01504
0.01922
0.02021
0.02009
0.01625
0.01386
0.0145
0.0146
0.01465
0.01499
0.01564
0.01661
0.01791
0.0198
0.02361
0.02922
0.03633
0.0437
0.0513
0.05969
0.0668
0.08028
0.1024
0.1343
0.1721
0.2271
0.2877
0.3805
0.4738
0.5492
0.6019
0.6645
0.7353
0.8069
0.8597
0.9021
0.9301
0.9554
0.973
0.987
0.9929
0.9968
0.9984
0.9993
0.9997
0.9999
0.9999
0.004736
0.002481
0.001502
0.001013
0.000853
0.0008262
0.001279
0.001165
0.000776
0.0003835
0.00021
0.0001061
6.007e-05
0.0001076
0.0004168
0.001384
0.003137
0.004583
0.003801
0.004063
0.007411
0.01525
0.02667
0.02802
0.02291
0.01084
0.00484
0.002979
0.003238
0.003929
0.004869
0.004402
0.003364
0.00376
0.004787
0.005539
0.00396
0.00333
0.003742
0.0008498
0.0001112
1.154e-05
1.625e-06
6.48e-07
1.511e-06
1.229e-06
8.663e-07
8.381e-07
8.339e-07
1.049e-06
2.615e-06
4.038e-06
7.574e-06
9.8e-06
7.374e-06
5.084e-06
8.666e-06
3.478e-05
0.0002018
0.001297
0.004187
0.008551
0.01299
0.02158
0.0247
0.02037
0.02029
0.02279
0.02245
0.027
0.03514
0.03996
0.05294
0.07472
0.1002
0.1521
0.2168
0.3401
0.4354
0.4716
0.4795
0.4843
0.5226
0.5535
0.5706
0.5535
0.4771
0.4239
0.4581
0.5648
0.6527
0.7208
0.7179
0.7218
0.7568
0.7749
0.7579
0.6887
0.5699
0.4305
0.4568
0.4459
0.423
0.3232
0.2479
0.1996
0.1871
0.161
0.1434
0.1073
0.07549
0.04755
0.04258
0.037
0.03776
0.03432
0.03299
0.02754
0.02571
0.02506
0.02495
0.02569
0.02735
0.02984
0.03327
0.03801
0.04519
0.05676
0.07304
0.09346
0.1196
0.1518
0.1927
0.256
0.3671
0.4899
0.5859
0.6466
0.6873
0.7282
0.7763
0.8221
0.8604
0.885
0.9076
0.9297
0.9516
0.9664
0.978
0.9847
0.9915
0.9956
0.9981
0.9991
0.9996
0.9998
0.9999
0.9999
1
1
0.006307
0.003227
0.002106
0.001503
0.001337
0.001265
0.001344
0.0007025
0.0003325
0.0001736
9.59e-05
9.737e-05
0.000125
0.0003373
0.001296
0.002691
0.002364
0.001241
0.0005856
0.000466
0.0009904
0.003436
0.01221
0.0272
0.03231
0.01619
0.006187
0.003399
0.003042
0.004759
0.007187
0.006372
0.003947
0.003341
0.002983
0.003873
0.004784
0.005691
0.005468
0.0008559
7.915e-05
6.281e-06
1.085e-06
7.057e-07
2.854e-06
4.254e-06
2.889e-06
1.542e-06
5.405e-07
3.27e-07
8.987e-07
2.433e-06
8.605e-06
1.462e-05
6.823e-06
2.541e-06
3.522e-06
1.562e-05
0.0001699
0.001682
0.005523
0.01094
0.01323
0.02005
0.02319
0.02394
0.02657
0.03515
0.04311
0.06887
0.1012
0.1398
0.1957
0.3056
0.4112
0.5376
0.6335
0.7148
0.7526
0.7608
0.7569
0.7434
0.7739
0.8017
0.8324
0.8544
0.8615
0.8629
0.8789
0.9093
0.9313
0.9474
0.9481
0.9438
0.9479
0.9477
0.9397
0.9161
0.8737
0.8124
0.8119
0.8069
0.7875
0.7164
0.604
0.4937
0.4551
0.3697
0.3129
0.2399
0.1759
0.1336
0.1332
0.1033
0.1035
0.102
0.1159
0.1181
0.1259
0.1181
0.1193
0.1278
0.1422
0.1621
0.1891
0.2272
0.2858
0.3712
0.4589
0.515
0.5663
0.6146
0.6651
0.7174
0.7739
0.8168
0.8515
0.8739
0.8908
0.9088
0.929
0.9479
0.9625
0.9712
0.9784
0.9843
0.9897
0.9931
0.9956
0.9969
0.9984
0.9992
0.9997
0.9998
0.9999
0.9999
0.9999
1
1
1
0.005653
0.003034
0.002319
0.002047
0.002018
0.001715
0.000928
0.0003214
0.000125
8.085e-05
6.926e-05
0.0001254
0.0003156
0.001156
0.002498
0.00325
0.001196
0.0002184
6.264e-05
5.012e-05
0.0001587
0.0008265
0.005794
0.01939
0.03099
0.01928
0.01146
0.007041
0.005726
0.007727
0.008858
0.005297
0.002103
0.001007
0.0008169
0.001071
0.002078
0.003931
0.004524
0.001091
0.0001329
1.22e-05
2.688e-06
2.224e-06
6.968e-06
1.035e-05
7.944e-06
3.458e-06
9.295e-07
4.738e-07
1.205e-06
4.556e-06
2.758e-05
5.768e-05
2.659e-05
8.131e-06
1e-05
4.319e-05
0.0004646
0.004973
0.01546
0.02342
0.02528
0.03529
0.04514
0.05532
0.06619
0.08531
0.1143
0.1865
0.3036
0.4813
0.6013
0.6837
0.7267
0.7744
0.819
0.8589
0.8862
0.9026
0.9126
0.9217
0.9423
0.9559
0.9692
0.9773
0.9826
0.9854
0.9889
0.9916
0.9936
0.995
0.9946
0.993
0.992
0.9898
0.9876
0.9808
0.9694
0.9474
0.9364
0.9255
0.9162
0.8957
0.861
0.8251
0.8071
0.7618
0.7109
0.6266
0.5858
0.5409
0.559
0.4903
0.4454
0.4178
0.4729
0.4933
0.5235
0.5082
0.5134
0.5342
0.5655
0.6043
0.6496
0.694
0.7385
0.7786
0.8134
0.8333
0.8531
0.8724
0.8946
0.9149
0.935
0.9486
0.9594
0.9663
0.9714
0.9769
0.9829
0.9882
0.992
0.9942
0.9957
0.997
0.9979
0.9986
0.999
0.9992
0.9995
0.9998
0.9999
0.9999
1
1
1
1
1
0.9999
0.004761
0.003098
0.002682
0.002252
0.00153
0.00103
0.0004185
0.0001715
9.114e-05
0.0001331
0.0001585
0.0004698
0.001383
0.002914
0.003625
0.00324
0.0007736
0.0001083
2.524e-05
1.639e-05
5.86e-05
0.0005855
0.006581
0.02093
0.02969
0.01755
0.01251
0.009129
0.008973
0.01154
0.01064
0.005025
0.00141
0.0005699
0.0003518
0.000451
0.001008
0.00193
0.002135
0.0007239
0.0001215
2.21e-05
7.311e-06
6.593e-06
1.105e-05
1.124e-05
7.868e-06
2.613e-06
5.883e-07
3.238e-07
8.327e-07
5.755e-06
7.221e-05
0.0003093
0.0002306
8.215e-05
7.581e-05
0.0002432
0.001644
0.01115
0.02727
0.03638
0.03794
0.0502
0.06893
0.1041
0.1534
0.2412
0.3955
0.5521
0.6753
0.7566
0.8157
0.847
0.8632
0.883
0.908
0.9362
0.9606
0.973
0.9792
0.9825
0.9878
0.9923
0.9963
0.9982
0.999
0.9993
0.9995
0.9996
0.9996
0.9996
0.9995
0.999
0.9983
0.997
0.9959
0.9947
0.9927
0.9885
0.985
0.9811
0.977
0.971
0.9613
0.9512
0.9428
0.9245
0.9022
0.8742
0.8441
0.8208
0.8248
0.801
0.7876
0.7803
0.7927
0.8062
0.8224
0.8221
0.8277
0.8373
0.8502
0.8658
0.884
0.9022
0.9196
0.9346
0.9473
0.9545
0.9608
0.9659
0.9723
0.9782
0.9839
0.988
0.9912
0.9931
0.9945
0.9957
0.9967
0.9977
0.9983
0.9987
0.999
0.9992
0.9994
0.9996
0.9997
0.9997
0.9998
0.9998
0.9999
0.9999
0.9999
0.9999
0.9999
0.9999
0.9999
0.9999
0.004275
0.003498
0.002948
0.00214
0.001163
0.0006797
0.0002632
0.0001482
0.0001509
0.0002407
0.0004188
0.001278
0.002632
0.003474
0.003889
0.002684
0.0008672
0.0001387
3.255e-05
1.682e-05
5.182e-05
0.0004509
0.005054
0.01614
0.02711
0.02126
0.02083
0.01905
0.01969
0.02123
0.01654
0.007686
0.002764
0.001165
0.0006242
0.0006424
0.001231
0.001933
0.001939
0.0009599
0.0003237
9.109e-05
4.642e-05
3.512e-05
2.742e-05
2.414e-05
1.415e-05
7.77e-06
2.957e-06
2.528e-06
5.26e-06
2.31e-05
0.0001603
0.0005321
0.0005698
0.0003946
0.000596
0.001633
0.00867
0.03324
0.05654
0.06677
0.07516
0.1085
0.1746
0.2937
0.4435
0.5822
0.6926
0.7777
0.8389
0.8781
0.9018
0.9126
0.9273
0.9446
0.9618
0.9802
0.9903
0.994
0.9963
0.9973
0.9983
0.9991
0.9996
0.9998
0.9999
0.9999
1
1
1
0.9999
0.9998
0.9996
0.9992
0.9985
0.9979
0.9975
0.997
0.9959
0.995
0.9941
0.9932
0.9919
0.9899
0.9873
0.9844
0.9791
0.9725
0.9642
0.955
0.9468
0.943
0.9345
0.9301
0.9283
0.9315
0.9365
0.9416
0.9428
0.9449
0.9477
0.9538
0.9614
0.9691
0.9756
0.9808
0.9844
0.9875
0.9893
0.991
0.9926
0.9942
0.9955
0.9966
0.9974
0.9981
0.9985
0.9988
0.999
0.9992
0.9994
0.9995
0.9996
0.9997
0.9997
0.9998
0.9998
0.9998
0.9998
0.9998
0.9998
0.9999
0.9999
0.9999
0.9999
0.9999
0.9999
0.9998
0.9997
0.00481
0.004659
0.004082
0.002234
0.001043
0.0005644
0.0003265
0.0003033
0.0006506
0.0008761
0.001362
0.002284
0.002915
0.002561
0.002655
0.002288
0.001567
0.0003534
9.92e-05
4.061e-05
9.189e-05
0.0005361
0.004252
0.01094
0.01637
0.01604
0.02036
0.0249
0.02825
0.02924
0.02351
0.01461
0.007878
0.004297
0.002263
0.001888
0.002421
0.0031
0.003203
0.002523
0.001353
0.0006145
0.0004136
0.0003124
0.0001694
0.0001518
0.0001091
7.505e-05
3.513e-05
2.794e-05
3.108e-05
7.425e-05
0.0002434
0.0006346
0.0009294
0.001426
0.003988
0.01418
0.04688
0.09913
0.1239
0.1493
0.2123
0.3657
0.5354
0.6469
0.7139
0.7864
0.8413
0.8788
0.9041
0.9263
0.9385
0.9455
0.9596
0.9736
0.9841
0.9931
0.9969
0.998
0.9986
0.9989
0.9993
0.9996
0.9998
0.9999
1
1
1
1
1
0.9999
0.9998
0.9995
0.9991
0.9985
0.9981
0.9981
0.998
0.9979
0.9978
0.9977
0.9975
0.9972
0.9966
0.9959
0.995
0.9939
0.9926
0.9907
0.9884
0.9857
0.9834
0.9819
0.981
0.9803
0.98
0.98
0.9803
0.9817
0.9836
0.9858
0.9884
0.9908
0.9926
0.9941
0.9953
0.9962
0.997
0.9975
0.9979
0.9983
0.9986
0.9989
0.9991
0.9993
0.9994
0.9995
0.9996
0.9997
0.9997
0.9997
0.9998
0.9998
0.9998
0.9998
0.9998
0.9999
0.9999
0.9998
0.9998
0.9998
0.9998
0.9998
0.9999
0.9999
0.9999
0.9998
0.9997
0.9996
0.006439
0.006514
0.006003
0.002224
0.001067
0.0005612
0.0005969
0.001107
0.003077
0.002634
0.002935
0.001767
0.001811
0.001216
0.001467
0.001059
0.0005237
8.534e-05
1.985e-05
8.349e-06
1.919e-05
0.0001147
0.001
0.002771
0.005762
0.007257
0.01002
0.01513
0.01998
0.02083
0.0183
0.01439
0.01203
0.009498
0.00663
0.005183
0.005877
0.006705
0.007677
0.008558
0.005219
0.003246
0.002261
0.001986
0.001179
0.001345
0.001122
0.0009183
0.0005275
0.0004753
0.0003932
0.0004918
0.0009886
0.002327
0.004784
0.009698
0.02536
0.05915
0.1154
0.1769
0.2438
0.3326
0.4844
0.6281
0.7292
0.7936
0.8381
0.8821
0.91
0.927
0.936
0.9464
0.9535
0.9606
0.9708
0.9817
0.9899
0.9957
0.9978
0.9985
0.9987
0.9991
0.9995
0.9997
0.9999
0.9999
1
1
1
1
0.9999
0.9998
0.9996
0.9991
0.9987
0.9984
0.9984
0.9984
0.9984
0.9983
0.9983
0.9984
0.9984
0.9985
0.9984
0.9983
0.9981
0.9977
0.9973
0.9967
0.996
0.9952
0.9942
0.9934
0.9926
0.9921
0.9917
0.9915
0.9919
0.9931
0.9944
0.9956
0.9966
0.9973
0.9978
0.9983
0.9986
0.9988
0.9991
0.9992
0.9994
0.9995
0.9996
0.9996
0.9997
0.9997
0.9997
0.9998
0.9998
0.9998
0.9998
0.9998
0.9998
0.9998
0.9998
0.9999
0.9999
0.9999
0.9999
0.9998
0.9998
0.9998
0.9998
0.9998
0.9999
0.9999
0.9999
0.9999
0.9998
0.9997
0.006745
0.00773
0.008885
0.003068
0.001258
0.0006803
0.001078
0.003171
0.008987
0.006049
0.004518
0.001744
0.001001
0.0008417
0.0007144
0.0002256
8.031e-05
1.075e-05
2.306e-06
1.089e-06
3.327e-06
3.44e-05
0.0004174
0.001694
0.004622
0.005225
0.00864
0.01305
0.01822
0.01872
0.01748
0.01567
0.01608
0.01683
0.01479
0.01351
0.01503
0.01597
0.01793
0.02164
0.0144
0.009546
0.00674
0.006771
0.004574
0.004595
0.004154
0.004129
0.003861
0.004352
0.004248
0.004992
0.007851
0.01287
0.02165
0.03979
0.07512
0.146
0.2515
0.3716
0.4839
0.5825
0.665
0.735
0.7973
0.85
0.892
0.925
0.9413
0.9486
0.9502
0.9554
0.961
0.9677
0.9741
0.9824
0.9892
0.9946
0.9965
0.997
0.9973
0.9983
0.999
0.9994
0.9997
0.9998
0.9998
0.9999
0.9999
0.9997
0.9995
0.999
0.9984
0.9976
0.9973
0.9972
0.9974
0.9975
0.9975
0.9975
0.9976
0.9978
0.998
0.9982
0.9983
0.9984
0.9983
0.9982
0.998
0.9978
0.9975
0.9973
0.9971
0.997
0.9969
0.9966
0.9962
0.9961
0.9965
0.9973
0.998
0.9986
0.9989
0.999
0.9992
0.9993
0.9995
0.9996
0.9996
0.9997
0.9997
0.9998
0.9998
0.9998
0.9998
0.9998
0.9998
0.9998
0.9998
0.9998
0.9998
0.9998
0.9998
0.9998
0.9999
0.9999
0.9999
0.9999
0.9998
0.9998
0.9998
0.9998
0.9999
0.9999
0.9999
0.9999
0.9999
0.9999
0.9999
0.9998
0.005441
0.007351
0.0111
0.004892
0.001946
0.001283
0.002796
0.007807
0.01584
0.009403
0.004714
0.002055
0.001201
0.0009808
0.000369
6.88e-05
1.621e-05
2.441e-06
7.939e-07
5.582e-07
2.855e-06
3.268e-05
0.0003733
0.001732
0.005693
0.005882
0.008596
0.01248
0.01607
0.01537
0.01477
0.01331
0.01609
0.01911
0.02168
0.02277
0.0268
0.02629
0.02788
0.03074
0.02262
0.01794
0.01477
0.01451
0.009565
0.008198
0.006342
0.006752
0.009258
0.01464
0.01811
0.02038
0.02819
0.04115
0.07407
0.1236
0.2041
0.3298
0.4796
0.5854
0.673
0.741
0.8002
0.8472
0.8878
0.921
0.9445
0.9587
0.9639
0.9628
0.9572
0.9557
0.9587
0.9642
0.969
0.9747
0.9808
0.9863
0.9891
0.9897
0.9915
0.9953
0.9974
0.9984
0.9988
0.9991
0.9992
0.9992
0.9989
0.9978
0.9959
0.9943
0.993
0.9922
0.9927
0.993
0.9932
0.9933
0.9934
0.9936
0.9939
0.9945
0.9954
0.9962
0.9968
0.9971
0.9972
0.9973
0.9973
0.9974
0.9973
0.9973
0.9975
0.9979
0.9982
0.9983
0.9982
0.9981
0.9984
0.9988
0.9992
0.9993
0.9994
0.9995
0.9996
0.9996
0.9997
0.9997
0.9998
0.9998
0.9998
0.9998
0.9998
0.9998
0.9998
0.9998
0.9998
0.9998
0.9998
0.9998
0.9998
0.9999
0.9999
0.9999
0.9999
0.9999
0.9999
0.9998
0.9998
0.9998
0.9999
0.9999
0.9999
0.9999
0.9999
0.9999
1
1
0.9999
0.9999
0.003751
0.006288
0.01146
0.005622
0.002193
0.001991
0.004864
0.01807
0.02662
0.01438
0.005133
0.002083
0.001115
0.0009233
0.0001614
2.59e-05
7.551e-06
2.272e-06
1.184e-06
1.276e-06
8.229e-06
8.614e-05
0.00105
0.004458
0.01158
0.009193
0.01105
0.01266
0.01477
0.01478
0.01518
0.01526
0.0211
0.02556
0.02614
0.02645
0.02761
0.0217
0.01765
0.0176
0.01658
0.01856
0.02356
0.02691
0.01938
0.01331
0.007994
0.007513
0.0103
0.01848
0.02891
0.04136
0.06838
0.1143
0.1886
0.2881
0.4226
0.5298
0.6221
0.7053
0.7744
0.8279
0.8713
0.9031
0.9249
0.9438
0.9581
0.9657
0.9654
0.9606
0.9509
0.9442
0.9451
0.9503
0.9529
0.9563
0.9622
0.9641
0.9652
0.9675
0.9719
0.9814
0.9883
0.991
0.9928
0.9938
0.9927
0.9914
0.9876
0.9796
0.9718
0.971
0.9717
0.9731
0.9745
0.9753
0.9758
0.9764
0.977
0.9787
0.981
0.9836
0.987
0.9896
0.9913
0.9928
0.9936
0.9941
0.9946
0.995
0.9949
0.9951
0.9958
0.9968
0.9975
0.998
0.9984
0.9987
0.9991
0.9994
0.9995
0.9996
0.9996
0.9996
0.9997
0.9997
0.9998
0.9998
0.9998
0.9998
0.9998
0.9998
0.9998
0.9998
0.9998
0.9998
0.9998
0.9998
0.9999
0.9999
0.9999
0.9999
0.9999
0.9999
0.9999
0.9999
0.9998
0.9998
0.9998
0.9999
0.9999
0.9999
0.9999
0.9999
0.9999
1
1
1
0.9999
0.9999
0.004252
0.007219
0.01212
0.006491
0.002036
0.002086
0.005788
0.02054
0.02419
0.0114
0.004143
0.001796
0.0007715
0.0005927
0.0001062
2.116e-05
1.237e-05
9.68e-06
8.217e-06
1.285e-05
7.265e-05
0.0005121
0.003965
0.01323
0.02716
0.01961
0.02026
0.01799
0.01654
0.01482
0.01512
0.01772
0.02799
0.03637
0.03474
0.03235
0.02985
0.02169
0.01578
0.01362
0.01175
0.01328
0.01712
0.0228
0.02182
0.02007
0.01535
0.01492
0.01777
0.03135
0.05413
0.08754
0.1433
0.2278
0.3446
0.4687
0.5573
0.6332
0.7108
0.7775
0.8334
0.8803
0.9114
0.9314
0.9429
0.9522
0.9594
0.9619
0.9584
0.9488
0.9344
0.9194
0.9177
0.9218
0.926
0.9283
0.9308
0.9256
0.9202
0.919
0.9279
0.9432
0.9562
0.9605
0.9634
0.9643
0.9591
0.9517
0.9359
0.9113
0.892
0.8926
0.8963
0.9026
0.9094
0.9149
0.919
0.9228
0.9271
0.9339
0.9427
0.9517
0.9615
0.9692
0.9749
0.9795
0.9822
0.9838
0.9861
0.9885
0.9892
0.9899
0.9912
0.9928
0.9947
0.9963
0.9978
0.9987
0.9992
0.9995
0.9996
0.9996
0.9996
0.9997
0.9997
0.9998
0.9998
0.9998
0.9998
0.9998
0.9998
0.9998
0.9998
0.9998
0.9998
0.9999
0.9999
0.9999
0.9999
0.9999
0.9999
0.9999
0.9999
0.9999
0.9999
0.9998
0.9998
0.9999
0.9999
0.9999
0.9999
0.9999
0.9999
0.9999
0.9999
0.9999
0.9999
0.9999
0.9999
0.9999
0.006111
0.01012
0.01615
0.009264
0.002789
0.002826
0.00565
0.01569
0.01685
0.00851
0.002966
0.001642
0.0009289
0.0006748
0.0001684
5.863e-05
6.424e-05
0.0001029
0.0001283
0.0002087
0.0007733
0.002833
0.01016
0.02228
0.0345
0.02587
0.02603
0.0217
0.01815
0.01491
0.01694
0.02368
0.04059
0.0576
0.05207
0.04314
0.03122
0.02052
0.01328
0.01028
0.008134
0.009484
0.01315
0.02134
0.03143
0.04045
0.0389
0.04171
0.04636
0.06548
0.0938
0.1567
0.253
0.4027
0.5311
0.6334
0.7098
0.7737
0.8183
0.8519
0.8819
0.9079
0.9256
0.9379
0.9425
0.9451
0.9477
0.9464
0.9396
0.9282
0.9096
0.889
0.8789
0.8726
0.8773
0.8843
0.8854
0.8756
0.8623
0.846
0.8463
0.8408
0.8327
0.8251
0.8001
0.7697
0.7426
0.7042
0.6698
0.6657
0.6592
0.6684
0.6759
0.6891
0.7062
0.7249
0.746
0.7714
0.7958
0.8242
0.8557
0.8824
0.9041
0.9189
0.9297
0.9411
0.9502
0.9566
0.9645
0.9712
0.9746
0.9763
0.9788
0.9811
0.9853
0.991
0.9958
0.9981
0.999
0.9994
0.9995
0.9996
0.9997
0.9997
0.9998
0.9998
0.9998
0.9998
0.9998
0.9998
0.9998
0.9998
0.9998
0.9999
0.9999
0.9999
0.9999
0.9999
0.9999
0.9999
0.9999
0.9999
0.9998
0.9998
0.9998
0.9998
0.9998
0.9999
0.9999
0.9999
0.9999
1
0.9999
0.9999
0.9999
0.9999
0.9999
0.9999
0.9998
0.9996
0.01012
0.01578
0.02313
0.01148
0.003666
0.003137
0.003971
0.009768
0.01257
0.008137
0.003916
0.003426
0.002434
0.001859
0.0006552
0.000291
0.0003402
0.0006588
0.001051
0.00225
0.005281
0.008915
0.01322
0.01539
0.01599
0.01557
0.02267
0.0194
0.01639
0.01242
0.01216
0.01513
0.02777
0.04569
0.04969
0.04596
0.03484
0.02451
0.01798
0.01437
0.01155
0.01306
0.01793
0.02963
0.05317
0.08527
0.09678
0.1128
0.1221
0.1478
0.1997
0.3094
0.4526
0.5765
0.6659
0.7406
0.7974
0.8437
0.8732
0.8939
0.9099
0.9221
0.9281
0.9317
0.9277
0.9218
0.9208
0.9188
0.9134
0.9059
0.8885
0.8615
0.8348
0.8138
0.8183
0.8284
0.8287
0.8111
0.7822
0.739
0.7097
0.6655
0.6171
0.5719
0.5127
0.4791
0.4598
0.4391
0.4032
0.411
0.4066
0.4174
0.4179
0.4324
0.4512
0.4733
0.5146
0.5643
0.6074
0.656
0.7103
0.7533
0.7911
0.8203
0.8468
0.8733
0.8945
0.9077
0.9251
0.9391
0.948
0.951
0.9546
0.9558
0.9636
0.9777
0.9909
0.9963
0.9982
0.999
0.9993
0.9995
0.9997
0.9998
0.9998
0.9998
0.9998
0.9998
0.9998
0.9998
0.9998
0.9998
0.9998
0.9998
0.9998
0.9998
0.9998
0.9998
0.9998
0.9998
0.9998
0.9998
0.9998
0.9998
0.9998
0.9998
0.9999
0.9999
0.9999
1
1
1
0.9999
0.9999
0.9999
0.9998
0.9998
0.9996
0.9994
0.9988
0.01334
0.02002
0.0281
0.01323
0.004503
0.00246
0.002028
0.0051
0.009727
0.01028
0.006708
0.008476
0.006468
0.005061
0.002554
0.001495
0.001747
0.003512
0.004994
0.009045
0.01448
0.01497
0.01304
0.01069
0.0101
0.01166
0.02281
0.02041
0.01806
0.01381
0.01209
0.01228
0.01992
0.03522
0.04929
0.05796
0.05125
0.04048
0.03256
0.02733
0.02344
0.02713
0.0365
0.05508
0.08989
0.1391
0.1688
0.2114
0.2618
0.3215
0.4041
0.5063
0.5985
0.6862
0.7542
0.8106
0.8535
0.888
0.9086
0.9221
0.9256
0.925
0.917
0.9044
0.8873
0.8687
0.8599
0.8597
0.8649
0.8694
0.86
0.832
0.7913
0.7516
0.7404
0.7458
0.7356
0.6983
0.6392
0.5572
0.4933
0.4189
0.3464
0.3075
0.2564
0.2375
0.2148
0.2093
0.1818
0.171
0.1596
0.1613
0.1695
0.19
0.1983
0.1977
0.2146
0.2451
0.2884
0.3416
0.4216
0.4894
0.5526
0.6115
0.6717
0.7206
0.7623
0.7898
0.8248
0.8536
0.8806
0.8959
0.9077
0.9139
0.9312
0.9556
0.9803
0.9923
0.9969
0.9985
0.9991
0.9994
0.9996
0.9998
0.9998
0.9998
0.9998
0.9998
0.9998
0.9998
0.9998
0.9998
0.9998
0.9998
0.9998
0.9998
0.9998
0.9998
0.9998
0.9998
0.9998
0.9999
0.9999
0.9999
0.9999
0.9999
0.9999
1
1
1
0.9999
0.9999
0.9999
0.9998
0.9997
0.9995
0.999
0.9984
0.9972
0.9946
0.0136
0.01955
0.02874
0.01174
0.004378
0.001476
0.0009695
0.002666
0.009406
0.01698
0.01689
0.02217
0.01678
0.01319
0.008043
0.006068
0.005213
0.008891
0.01072
0.01691
0.02073
0.01687
0.01251
0.009049
0.01081
0.01502
0.03039
0.02897
0.02504
0.01787
0.0141
0.01162
0.015
0.02543
0.0429
0.06559
0.07497
0.0639
0.05624
0.05187
0.05214
0.06632
0.08828
0.1168
0.1578
0.2102
0.2537
0.3107
0.3914
0.4664
0.5368
0.6131
0.6829
0.7428
0.7971
0.8428
0.8792
0.9087
0.9269
0.9383
0.9392
0.9311
0.9113
0.8879
0.8608
0.8421
0.8337
0.8326
0.837
0.8418
0.8289
0.7899
0.7287
0.6631
0.6256
0.605
0.5631
0.4873
0.3925
0.2897
0.2414
0.2029
0.1774
0.1609
0.1233
0.0968
0.08122
0.07699
0.07388
0.07638
0.07282
0.07047
0.07733
0.08943
0.1008
0.1032
0.1134
0.1256
0.1452
0.1598
0.1799
0.2024
0.2377
0.2971
0.3909
0.4502
0.5076
0.5601
0.6165
0.6696
0.7296
0.7835
0.8306
0.8714
0.9145
0.9445
0.9701
0.9879
0.9957
0.9982
0.9991
0.9993
0.9995
0.9996
0.9997
0.9998
0.9998
0.9997
0.9997
0.9997
0.9997
0.9997
0.9998
0.9998
0.9998
0.9998
0.9999
0.9999
0.9999
0.9999
0.9999
0.9999
0.9999
0.9999
0.9999
0.9999
0.9999
0.9999
0.9999
0.9999
0.9998
0.9997
0.9995
0.9991
0.9986
0.9975
0.9953
0.9918
0.9868
0.9749
0.01009
0.01435
0.02385
0.01234
0.007491
0.002105
0.001174
0.002006
0.007256
0.01172
0.01596
0.02191
0.02122
0.01729
0.01198
0.01115
0.009489
0.01396
0.01902
0.02386
0.02281
0.01799
0.0138
0.01057
0.01111
0.01372
0.02506
0.02705
0.02893
0.02474
0.01941
0.01356
0.01407
0.01928
0.0333
0.05714
0.07445
0.06534
0.06348
0.06888
0.08524
0.1243
0.168
0.2064
0.2468
0.2986
0.36
0.4276
0.4901
0.5504
0.6049
0.6592
0.7113
0.7582
0.8048
0.8474
0.8821
0.9118
0.9315
0.9438
0.9424
0.9296
0.9009
0.8668
0.8329
0.8164
0.8044
0.7936
0.79
0.7828
0.7625