/*--------------------------------*- C++ -*----------------------------------*\
| =========                 |                                                 |
| \\      /  F ield         | OpenFOAM: The Open Source CFD Toolbox           |
|  \\    /   O peration     | Version:  5.x                                   |
|   \\  /    A nd           | Web:      www.OpenFOAM.org                      |
|    \\/     M anipulation  |                                                 |
\*---------------------------------------------------------------------------*/
FoamFile
{
    version     2.0;
    format      ascii;
    class       volScalarField;
    location    "150";
    object      gamma;
}
// * * * * * * * * * * * * * * * * * * * * * * * * * * * * * * * * * * * * * //

dimensions      [0 0 0 0 0 0 0];

internalField   nonuniform List<scalar> 
86400
(
2.893e-07
3.965e-07
6.763e-07
1.554e-06
3.837e-06
6.968e-06
8.1e-06
9.747e-06
1.233e-05
1.26e-05
1.239e-05
8.479e-06
5.092e-06
2.293e-06
3.476e-06
9.323e-06
6.035e-05
0.0001509
0.0003204
0.0002432
0.0002419
0.0002992
0.000577
0.0006272
0.0007602
0.001312
0.001748
0.002506
0.003032
0.003513
0.003303
0.003218
0.003029
0.002805
0.002747
0.00319
0.003161
0.003009
0.002429
0.002324
0.00218
0.002369
0.00209
0.001617
0.001509
0.001708
0.002323
0.002821
0.003192
0.002965
0.003011
0.00319
0.003371
0.003463
0.003518
0.003938
0.004594
0.00508
0.005306
0.005225
0.004567
0.004529
0.004167
0.004193
0.004884
0.006031
0.007071
0.007433
0.005985
0.005272
0.00589
0.007323
0.009584
0.00876
0.007526
0.005915
0.004374
0.003932
0.004376
0.004854
0.006196
0.006848
0.006369
0.005703
0.005418
0.004866
0.005118
0.005201
0.005737
0.006243
0.005884
0.006547
0.007414
0.009706
0.01085
0.01175
0.01053
0.01058
0.01084
0.01059
0.009934
0.01031
0.009265
0.007923
0.005183
0.004817
0.005285
0.008056
0.008836
0.008853
0.006823
0.005982
0.005053
0.00389
0.002564
0.001865
0.0016
0.001517
0.001386
0.001331
0.001432
0.001555
0.001852
0.002008
0.001898
0.001753
0.00159
0.001474
0.001327
0.001112
0.0007721
0.0006113
0.0005278
0.0004778
0.0004472
0.0004736
0.00056
0.0006926
0.0003514
8.786e-05
2.417e-05
2.012e-05
2.697e-05
3.168e-05
1.754e-05
3.895e-06
6.74e-07
1.844e-07
1.341e-07
1.199e-07
3.342e-07
7.508e-07
3.134e-06
7.269e-06
3.306e-05
0.0001036
0.0002639
0.0003706
0.04529
0.9896
3.941e-07
4.753e-07
7.541e-07
1.389e-06
2.923e-06
4.64e-06
4.991e-06
5.59e-06
6.09e-06
4.203e-06
3.766e-06
3.328e-06
3.224e-06
3.474e-06
6.621e-06
1.542e-05
5.512e-05
0.0001491
0.0003494
0.0004156
0.0005401
0.0008881
0.001668
0.002158
0.002629
0.003037
0.002656
0.002402
0.002198
0.002027
0.001805
0.002012
0.002298
0.002639
0.003055
0.003784
0.003993
0.004298
0.004104
0.004123
0.003763
0.00375
0.003384
0.002861
0.002697
0.003097
0.003806
0.00465
0.005548
0.005835
0.006492
0.007475
0.008493
0.009296
0.009423
0.008303
0.006947
0.005936
0.005225
0.005009
0.004842
0.005021
0.004562
0.004646
0.005503
0.007873
0.009613
0.0105
0.009026
0.008583
0.009767
0.01028
0.009242
0.006714
0.00497
0.004439
0.005363
0.006968
0.008306
0.008715
0.009911
0.01071
0.01168
0.01195
0.01214
0.01141
0.01216
0.01264
0.01504
0.01815
0.01954
0.022
0.02277
0.02204
0.01998
0.01836
0.01602
0.01375
0.01094
0.009755
0.009602
0.0119
0.01548
0.01398
0.00757
0.005591
0.005406
0.006739
0.008961
0.009955
0.007454
0.006939
0.007245
0.007414
0.00654
0.005227
0.004237
0.003799
0.003429
0.003301
0.003296
0.003053
0.002962
0.002836
0.002684
0.002901
0.003038
0.003162
0.002871
0.002293
0.001507
0.001198
0.001042
0.001182
0.001346
0.001297
0.001211
0.00107
0.0005355
0.0001758
9.337e-05
6.266e-05
4.386e-05
2.679e-05
1.067e-05
2.597e-06
9.362e-07
7.291e-07
1.385e-06
2.233e-06
4.462e-06
9.379e-06
3.515e-05
0.000101
0.0005315
0.003077
0.01779
0.1816
0.8833
0.9973
7.032e-07
8.004e-07
1.057e-06
1.464e-06
2.587e-06
3.477e-06
3.416e-06
3.65e-06
3.436e-06
2.444e-06
2.468e-06
3.238e-06
4.364e-06
7.029e-06
1.416e-05
4.192e-05
0.0001326
0.0004196
0.0007962
0.001081
0.001065
0.001689
0.002617
0.003442
0.004669
0.006382
0.006146
0.005494
0.00477
0.003718
0.00333
0.004205
0.004852
0.005034
0.004689
0.004578
0.004223
0.004523
0.004355
0.003934
0.003023
0.002759
0.00248
0.002613
0.003245
0.004597
0.006103
0.008115
0.01066
0.009947
0.008084
0.006358
0.005204
0.004811
0.005375
0.004924
0.004405
0.003884
0.003639
0.003662
0.004004
0.004528
0.004534
0.005432
0.005977
0.006838
0.007505
0.007915
0.007164
0.007156
0.007711
0.006525
0.005113
0.004429
0.004512
0.006859
0.01178
0.01668
0.01838
0.01892
0.01996
0.02142
0.02392
0.02569
0.02843
0.02777
0.0275
0.02612
0.02054
0.01455
0.00934
0.006364
0.005897
0.007534
0.009177
0.01087
0.01191
0.009257
0.006968
0.006367
0.006488
0.008022
0.01082
0.009011
0.005103
0.004363
0.005366
0.008028
0.01305
0.01377
0.01114
0.01248
0.01472
0.0158
0.01332
0.01029
0.007302
0.005893
0.004927
0.004676
0.004167
0.003974
0.003647
0.003229
0.002859
0.002993
0.003009
0.003123
0.002876
0.002379
0.001713
0.001424
0.001246
0.00152
0.001825
0.001581
0.001273
0.0009247
0.000491
0.0001915
0.0001134
6.703e-05
4.764e-05
3.322e-05
1.881e-05
7.83e-06
3.791e-06
3.878e-06
8.357e-06
2.193e-05
6.128e-05
0.0001333
0.0003865
0.001244
0.007199
0.0579
0.4698
0.9393
0.9961
0.9999
1.411e-06
1.44e-06
1.544e-06
1.633e-06
2.195e-06
2.23e-06
1.856e-06
1.835e-06
1.824e-06
1.687e-06
2.345e-06
2.345e-06
2.396e-06
4.759e-06
1.354e-05
3.52e-05
0.0001112
0.0002329
0.0001775
0.0001605
0.000137
0.0001624
0.0003047
0.0005303
0.0009391
0.001837
0.002635
0.00299
0.003219
0.002994
0.002885
0.004372
0.006032
0.007078
0.006381
0.005632
0.004856
0.005399
0.005446
0.004833
0.003689
0.003631
0.00411
0.005806
0.006837
0.007247
0.005993
0.005472
0.00587
0.005277
0.003734
0.002847
0.002623
0.002485
0.002923
0.002501
0.001901
0.001638
0.001938
0.002571
0.003424
0.004463
0.005123
0.006194
0.006382
0.006407
0.00593
0.005516
0.004809
0.006285
0.008629
0.007729
0.006985
0.007184
0.006756
0.01134
0.01879
0.02248
0.01951
0.02037
0.01708
0.01416
0.01196
0.009387
0.007804
0.00747
0.006939
0.006396
0.005435
0.004841
0.004204
0.003549
0.004003
0.005335
0.006614
0.007778
0.009269
0.006671
0.004885
0.004415
0.004784
0.006375
0.009801
0.009055
0.00521
0.003339
0.003088
0.004358
0.006457
0.007155
0.006024
0.006171
0.005877
0.008209
0.009282
0.01054
0.009724
0.01028
0.008638
0.008539
0.00703
0.00662
0.005475
0.004595
0.004011
0.004252
0.004633
0.005078
0.005055
0.004457
0.003393
0.002982
0.002842
0.003101
0.002967
0.001889
0.001021
0.0004305
0.0002809
0.0001566
0.0001227
7.802e-05
5.9e-05
4.195e-05
3.216e-05
2.301e-05
2.09e-05
4.858e-05
0.0001865
0.0005127
0.001257
0.002928
0.007539
0.02995
0.1699
0.7756
0.9686
0.999
1
1
3.526e-06
2.935e-06
2.578e-06
2.288e-06
2.16e-06
1.834e-06
1.239e-06
1.159e-06
1.37e-06
1.542e-06
2.649e-06
1.879e-06
8.009e-07
1.302e-06
5.583e-06
2.456e-05
0.0001828
0.0001967
6.53e-05
3.091e-05
3.052e-05
3.746e-05
7.814e-05
9.767e-05
0.0001813
0.0005546
0.001933
0.005023
0.00912
0.006636
0.003803
0.003477
0.003082
0.002806
0.002604
0.002263
0.00175
0.002391
0.003723
0.004957
0.003589
0.002115
0.001123
0.000968
0.0008202
0.0007732
0.0007281
0.0009944
0.001817
0.002718
0.00233
0.001558
0.001773
0.002116
0.002728
0.002199
0.001441
0.00134
0.001844
0.003149
0.005298
0.008304
0.01142
0.0138
0.01157
0.00753
0.005451
0.004008
0.002828
0.002944
0.003934
0.003572
0.004656
0.007108
0.007954
0.008758
0.009442
0.006646
0.004086
0.003613
0.002202
0.001276
0.001003
0.0009716
0.001203
0.00202
0.002687
0.002511
0.002181
0.002047
0.001642
0.001607
0.002234
0.003245
0.005227
0.006323
0.007309
0.005172
0.004125
0.003003
0.001759
0.001296
0.001868
0.002566
0.003208
0.003993
0.004345
0.005461
0.006522
0.006263
0.004407
0.003775
0.003056
0.004989
0.005159
0.005439
0.004487
0.00448
0.0032
0.003596
0.003247
0.003259
0.002856
0.002369
0.002058
0.002038
0.002071
0.002429
0.00285
0.003071
0.003009
0.002871
0.002627
0.00231
0.0018
0.000954
0.0004358
0.0002122
0.0001506
9.361e-05
8.516e-05
6.663e-05
7.618e-05
9.922e-05
0.0001366
0.0001585
0.0001865
0.0003192
0.001045
0.003416
0.01059
0.03598
0.1303
0.5655
0.9116
0.9909
0.9995
1
1
1
5.988e-06
4.413e-06
3.651e-06
3.112e-06
2.215e-06
1.561e-06
1.139e-06
1.104e-06
1.671e-06
2.723e-06
6.252e-06
2.93e-06
7.114e-07
5.515e-07
4.005e-06
1.489e-05
0.000111
8.587e-05
2.748e-05
1.258e-05
2.489e-05
3.756e-05
7.859e-05
4.615e-05
4.417e-05
7.72e-05
0.0002061
0.0008312
0.002653
0.002303
0.001187
0.0008219
0.0006536
0.0006256
0.0008676
0.0009243
0.0005554
0.0005435
0.0007208
0.0005961
0.0002384
0.0001049
2.957e-05
1.367e-05
8.897e-06
4.813e-06
2.216e-06
3.164e-06
9.262e-06
2.716e-05
4.384e-05
6.55e-05
0.0001355
0.0004158
0.0008357
0.0006928
0.0003299
0.0002572
0.0003851
0.001045
0.002507
0.004537
0.005343
0.006424
0.005759
0.003836
0.004137
0.003504
0.002373
0.002181
0.003073
0.002775
0.003811
0.004436
0.00268
0.001243
0.000559
0.0003358
0.0003245
0.0005254
0.0005678
0.0004497
0.0003322
0.0003634
0.0005691
0.00129
0.002389
0.002591
0.002781
0.003028
0.003275
0.002647
0.002735
0.002717
0.002721
0.002974
0.002997
0.002707
0.003312
0.003221
0.002129
0.001348
0.00135
0.001699
0.002725
0.003605
0.002736
0.003078
0.003336
0.003089
0.001588
0.0009578
0.0005711
0.001015
0.00145
0.002118
0.002089
0.001937
0.001465
0.001645
0.001431
0.001365
0.001194
0.0009952
0.000891
0.0008771
0.0008682
0.001045
0.001276
0.001459
0.001487
0.001482
0.001414
0.001176
0.001028
0.0006323
0.000459
0.0003167
0.0002816
0.0001959
0.0002069
0.0002075
0.0002457
0.0003394
0.0005541
0.0008608
0.001655
0.003947
0.01306
0.044
0.1561
0.5292
0.8882
0.9815
0.9988
0.9999
1
1
1
1
7.96e-06
4.879e-06
3.491e-06
2.49e-06
2.035e-06
1.756e-06
1.779e-06
2.115e-06
4.34e-06
7.504e-06
1.438e-05
6.002e-06
6.869e-07
3.687e-07
1.884e-06
1.042e-05
0.0001537
0.0003438
0.0001527
9.348e-05
0.0002578
0.0003072
0.0004582
0.0001553
7.473e-05
8.257e-05
0.0001725
0.0005079
0.001804
0.001793
0.001042
0.0004631
0.000336
0.000378
0.0006187
0.0006692
0.0002892
0.0001923
0.0002589
0.0001833
4.181e-05
8.13e-06
7.652e-07
1.438e-07
6.814e-08
1.729e-08
6.881e-09
1.441e-08
1.014e-07
6.613e-07
2.219e-06
2.655e-06
3.175e-06
6.077e-06
6.939e-06
8.962e-06
1.249e-05
3.027e-05
0.0001177
0.0005429
0.001358
0.002804
0.003903
0.006338
0.006581
0.003658
0.003812
0.003027
0.002133
0.001513
0.001823
0.001224
0.00163
0.001799
0.001185
0.0005249
0.0002205
0.0001409
0.0001325
0.0002354
0.0003456
0.0004039
0.0004242
0.0005211
0.0006433
0.0006912
0.0007973
0.0007239
0.001156
0.002744
0.003906
0.003272
0.002238
0.001545
0.001139
0.0008152
0.0004917
0.0003512
0.0003958
0.000434
0.0005264
0.0004382
0.0005584
0.001202
0.003418
0.005066
0.004149
0.003958
0.00352
0.002301
0.001118
0.0004748
0.000253
0.0004402
0.0008936
0.001264
0.001186
0.0008881
0.0006306
0.00069
0.0006748
0.0007066
0.0006999
0.0006383
0.0005507
0.0004551
0.0003739
0.0003874
0.0004545
0.0005844
0.0006746
0.0007298
0.0007054
0.0005335
0.0004954
0.000532
0.0006272
0.0007148
0.0009765
0.0008793
0.0009715
0.001229
0.001945
0.003767
0.01043
0.02726
0.06665
0.1468
0.373
0.7445
0.9232
0.9852
0.9988
0.9999
1
1
1
1
1
1
1.372e-05
6.046e-06
3.408e-06
2.266e-06
2.145e-06
2.232e-06
3.662e-06
5.995e-06
8.89e-06
7.056e-06
9.691e-06
3.46e-06
4.099e-07
3.839e-07
2.397e-06
1.751e-05
0.0003064
0.001326
0.001365
0.002029
0.003991
0.004041
0.004388
0.001553
0.0005836
0.0002176
0.0001354
0.0001903
0.0005065
0.0006846
0.0006024
0.0004572
0.0003677
0.0005138
0.0009633
0.001192
0.0005241
0.0003522
0.000385
0.0001079
1.185e-05
8.095e-07
4.785e-08
6.62e-09
5.675e-09
1.56e-09
6.274e-10
9.15e-10
2.218e-09
1.204e-08
5.132e-08
6.698e-08
1.091e-07
2.624e-07
2.761e-07
3.236e-07
7.822e-07
4.208e-06
3.321e-05
0.0002882
0.0009628
0.002287
0.003725
0.008035
0.008406
0.004669
0.003623
0.00237
0.001355
0.000816
0.0006371
0.0003871
0.0004091
0.0005443
0.0005508
0.0003789
0.0001678
0.0001331
0.0001398
0.0002545
0.0003758
0.0005139
0.0006151
0.0007191
0.0006483
0.000459
0.000426
0.0003958
0.0006275
0.00193
0.003864
0.003644
0.001645
0.001116
0.0007917
0.0005377
0.0003979
0.0003424
0.0003267
0.0004191
0.0008422
0.0009891
0.001098
0.001126
0.001535
0.001576
0.001524
0.001805
0.001978
0.001376
0.0005585
0.0001257
7.226e-05
0.0001505
0.000461
0.0007928
0.000932
0.0005029
0.0003192
0.0003369
0.0003497
0.0003553
0.0003547
0.0003474
0.0003265
0.0002956
0.000265
0.0002889
0.0003547
0.0004816
0.0006246
0.0007406
0.000742
0.0005897
0.0006332
0.0009101
0.001702
0.003003
0.005599
0.008554
0.01675
0.03273
0.06315
0.101
0.2176
0.5639
0.8019
0.9313
0.9815
0.9967
0.9995
0.9999
1
1
1
1
1
1
1
1
2.469e-05
6.952e-06
2.98e-06
1.754e-06
1.898e-06
2.755e-06
8.719e-06
9.965e-06
7.432e-06
3.808e-06
2.495e-06
1.195e-06
4.965e-07
1.069e-06
7.961e-06
4.545e-05
0.000184
0.0004512
0.0004602
0.0005739
0.001643
0.004711
0.01054
0.01058
0.007556
0.002165
0.000598
0.000294
0.0003774
0.0005652
0.0008676
0.0007812
0.0005223
0.0006375
0.0008962
0.001042
0.0005476
0.0004237
0.0005891
6.376e-05
2.709e-06
7.508e-08
3.19e-09
7.275e-10
3.05e-09
2.226e-09
1.271e-09
1.22e-09
1.224e-09
1.806e-09
8.229e-09
1.691e-08
4.809e-08
7.405e-08
4.611e-08
2.399e-08
4.977e-08
4.348e-07
7.082e-06
0.0001397
0.0008258
0.002236
0.003254
0.005572
0.004483
0.002037
0.001153
0.0007427
0.0003237
0.0001993
0.0001242
7.473e-05
7.386e-05
0.0001321
0.0001741
0.000354
0.0004021
0.0005609
0.0008735
0.002268
0.005806
0.01367
0.0253
0.02731
0.02129
0.01283
0.009521
0.01073
0.01392
0.02404
0.03074
0.02668
0.01808
0.01639
0.01066
0.01069
0.01076
0.007106
0.005394
0.002887
0.003118
0.001973
0.001972
0.00162
0.001521
0.001269
0.001627
0.001174
0.00094
0.0005149
0.0001699
4.418e-05
4.498e-05
4.521e-05
0.0001007
0.0001646
0.0002281
0.000146
0.0001184
0.0001029
0.0001048
0.0001159
0.0001298
0.000144
0.0001508
0.0001524
0.0001566
0.0001927
0.00029
0.0005316
0.001089
0.00209
0.003204
0.004265
0.006704
0.01235
0.02712
0.05333
0.09227
0.167
0.4128
0.6675
0.8444
0.9339
0.9766
0.9935
0.9982
0.9996
0.9999
1
1
1
1
1
1
1
1
1
1
1
2.152e-05
5.865e-06
3.048e-06
2.217e-06
3.235e-06
5.691e-06
1.125e-05
5.964e-06
2.873e-06
1.636e-06
8.927e-07
1.061e-06
1.405e-06
5.429e-06
4.319e-05
0.0001341
0.0001341
6.563e-05
2.666e-05
1.828e-05
5.929e-05
0.0003665
0.002546
0.009122
0.0125
0.003782
0.0007685
0.0003123
0.0002898
0.000693
0.001557
0.001417
0.0006922
0.0005423
0.0004159
0.0005787
0.0007654
0.001061
0.001145
6.789e-05
1.678e-06
3.054e-08
1.868e-09
9.651e-10
9.906e-09
1.926e-08
1.015e-08
3.585e-09
6.307e-10
2.737e-10
1.458e-09
7.557e-09
6.09e-08
1.448e-07
3.962e-08
6.782e-09
8.611e-09
8.346e-08
3.749e-06
0.0001552
0.0008588
0.001717
0.001065
0.0009662
0.0004917
0.0002551
0.0001727
0.0001445
9.958e-05
0.0001229
0.0001254
0.0001397
0.0002533
0.0009675
0.001769
0.004895
0.01364
0.07371
0.3407
0.7309
0.8389
0.8453
0.8712
0.9198
0.9515
0.9733
0.9831
0.9832
0.9758
0.9745
0.9747
0.9774
0.9816
0.9811
0.9728
0.97
0.9658
0.953
0.9276
0.8214
0.5476
0.1809
0.07426
0.02733
0.01025
0.004503
0.004231
0.001964
0.001163
0.0005378
0.00014
4.585e-05
6.125e-05
4.75e-05
0.0001156
0.0002438
0.0005206
0.0005121
0.0005531
0.0004268
0.0004458
0.0005529
0.0007187
0.0009482
0.001188
0.001448
0.00181
0.002585
0.004495
0.007808
0.01521
0.02884
0.04966
0.08218
0.1821
0.4118
0.6521
0.8103
0.9133
0.9685
0.9902
0.9968
0.9989
0.9996
0.9999
1
1
1
1
1
1
1
1
1
1
1
1
1
1
1
9.714e-06
3.034e-06
2.32e-06
3.119e-06
7.576e-06
1.453e-05
1.011e-05
2.966e-06
1.012e-06
7.185e-07
6.244e-07
1.525e-06
5.636e-06
3.872e-05
0.0001361
0.0002434
6.419e-05
5.481e-06
8.937e-07
5.464e-07
2.975e-06
3.346e-05
0.0007444
0.005354
0.01209
0.005085
0.002112
0.0009685
0.0007385
0.001384
0.001991
0.0009564
0.0002299
7.13e-05
4.858e-05
7.145e-05
0.0002062
0.0006247
0.0009107
0.0001081
4.08e-06
9.147e-08
8.286e-09
6.383e-09
4.295e-08
8.316e-08
5.377e-08
1.358e-08
1.54e-09
5.04e-10
2.354e-09
2.107e-08
4.108e-07
1.339e-06
3.262e-07
3.032e-08
2.497e-08
2.087e-07
8.883e-06
0.0003901
0.001408
0.001161
0.0004003
0.0002763
0.0001921
0.0001428
0.0001148
0.0001039
0.0001156
0.0002357
0.000581
0.00182
0.007317
0.03206
0.07711
0.2664
0.6746
0.924
0.9772
0.9942
0.9971
0.9977
0.9982
0.9993
0.9998
0.9999
1
1
0.9999
0.9999
0.9999
0.9999
1
1
0.9999
0.9999
0.9999
0.9999
0.9997
0.999
0.9951
0.9844
0.9691
0.94
0.8488
0.5781
0.3311
0.06755
0.02007
0.004482
0.001915
0.0007506
0.001152
0.0008006
0.001136
0.001943
0.005266
0.006084
0.007342
0.005134
0.004714
0.005235
0.006682
0.00999
0.01695
0.02806
0.04705
0.0823
0.1859
0.3837
0.6282
0.7992
0.9211
0.9681
0.9888
0.9951
0.9975
0.9986
0.9994
0.9998
1
1
1
1
1
1
1
1
1
1
1
1
1
1
1
1
1
1
1
1
2.926e-06
1.398e-06
1.738e-06
3.2e-06
6.159e-06
1.176e-05
5.005e-06
1.915e-06
9.52e-07
2.158e-06
2.515e-06
1.228e-05
6.037e-05
0.0001949
0.0003214
0.0003537
4.394e-05
2.295e-06
2.45e-07
1.038e-07
6.932e-07
2.427e-05
0.001099
0.006906
0.01215
0.004479
0.002437
0.001454
0.001506
0.002565
0.002564
0.0008253
0.0001115
2.681e-05
1.207e-05
1.817e-05
6.932e-05
0.0002061
0.0002595
4.838e-05
2.886e-06
1.986e-07
3.676e-08
3.428e-08
8.472e-08
8.952e-08
5.021e-08
8.15e-09
6.863e-10
2.53e-10
1.199e-09
2.903e-08
1.822e-06
1.836e-05
7.443e-06
5.724e-07
2.182e-07
1.041e-06
2.205e-05
0.0004578
0.0009358
0.0004764
0.0001046
5.385e-05
4.553e-05
6.358e-05
0.0001216
0.0003405
0.001259
0.004878
0.02903
0.1235
0.5778
0.8053
0.9144
0.9707
0.9929
0.9991
0.9998
1
1
1
1
1
1
1
1
1
1
1
1
1
1
1
1
1
1
1
1
1
1
1
0.9999
0.9998
0.9993
0.9974
0.994
0.9801
0.9459
0.8263
0.3968
0.05366
0.02556
0.01001
0.01191
0.01369
0.02527
0.03366
0.03513
0.03383
0.04941
0.09647
0.2253
0.5034
0.6859
0.8465
0.9366
0.9727
0.9895
0.9949
0.9971
0.9984
0.9995
0.9998
0.9999
1
1
1
1
1
1
1
1
1
1
1
1
1
1
1
1
1
1
1
1
1
1
1
1
1
1.716e-06
1.467e-06
2.005e-06
3.856e-06
6.912e-06
1.138e-05
4.084e-06
2.067e-06
2.167e-06
4.222e-06
8.346e-06
4.882e-05
0.0001748
0.0003474
0.0005332
0.0003839
7.272e-05
4.371e-06
4.414e-07
1.302e-07
6.804e-07
1.945e-05
0.0008765
0.005385
0.01224
0.007202
0.006493
0.005314
0.005629
0.006665
0.004962
0.001552
0.0003253
8.474e-05
3.029e-05
3.186e-05
9.528e-05
0.0002006
0.0002078
6.742e-05
1.151e-05
1.516e-06
5.639e-07
4.018e-07
2.991e-07
2.705e-07
1.179e-07
4.473e-08
8.894e-09
6.582e-09
2.016e-08
2.158e-07
4.118e-06
1.834e-05
9.352e-06
1.633e-06
1.201e-06
5.06e-06
0.0001006
0.000621
0.0004968
0.0001643
4.392e-05
4.513e-05
0.0001185
0.0004064
0.001678
0.01061
0.07763
0.4947
0.8442
0.9556
0.987
0.9946
0.9989
0.9998
1
1
1
1
1
1
1
1
1
1
1
1
1
1
1
1
1
1
1
1
1
1
1
1
1
1
1
1
1
1
1
0.9999
0.9998
0.9994
0.9987
0.9969
0.9936
0.9835
0.9749
0.9597
0.9575
0.96
0.9628
0.9699
0.9778
0.9853
0.9917
0.9956
0.9973
0.9989
0.9996
0.9998
0.9999
1
1
1
1
1
1
1
1
1
1
1
1
1
1
1
1
1
1
1
1
1
1
1
1
1
1
1
1
1
1
1
2.214e-06
2.524e-06
4.322e-06
6.044e-06
9.64e-06
1.202e-05
6.841e-06
4.975e-06
1.133e-05
1.402e-05
2.759e-05
8.718e-05
0.0002273
0.0002922
0.0003953
0.0003767
0.0002266
2.235e-05
3.009e-06
6.819e-07
2.347e-06
3.672e-05
0.0009313
0.003611
0.006018
0.004994
0.006857
0.008884
0.011
0.01175
0.008794
0.004373
0.001808
0.0006903
0.0002341
0.0001711
0.0002567
0.0003756
0.0004011
0.0002682
9.157e-05
2.589e-05
1.506e-05
1.047e-05
4.269e-06
4.218e-06
2.668e-06
1.51e-06
4.205e-07
2.551e-07
2.481e-07
8.204e-07
3.168e-06
6.388e-06
4.033e-06
2.279e-06
5.163e-06
4.422e-05
0.0004809
0.001155
0.0006446
0.0004015
0.0003688
0.0009666
0.005859
0.03342
0.1556
0.6941
0.9228
0.9793
0.9958
0.9995
0.9999
1
1
1
1
1
1
1
1
1
1
1
1
1
1
1
1
1
1
1
1
1
1
1
1
1
1
1
1
1
1
1
1
1
1
1
1
1
1
1
1
0.9999
0.9999
0.9998
0.9997
0.9997
0.9997
0.9998
0.9999
0.9999
1
1
1
1
1
1
1
1
1
1
1
1
1
1
1
1
1
1
1
1
1
1
1
1
1
1
1
1
1
1
1
1
1
1
1
1
1
1
7.305e-06
8.732e-06
1.677e-05
9.686e-06
1.414e-05
1.139e-05
1.289e-05
1.881e-05
5.092e-05
3.038e-05
5.167e-05
4.42e-05
0.0001165
0.0001045
0.0001735
0.000113
3.945e-05
2.21e-06
2.172e-07
5.085e-08
1.803e-07
2.942e-06
9.164e-05
0.0004052
0.001138
0.001391
0.002124
0.003771
0.005923
0.006339
0.005348
0.003637
0.00297
0.002039
0.001088
0.0007005
0.0008882
0.00109
0.001411
0.001759
0.0006997
0.0003148
0.0001825
0.0001581
7.291e-05
0.0001075
8.661e-05
6.61e-05
2.632e-05
1.906e-05
1.017e-05
8.991e-06
1.146e-05
1.637e-05
1.715e-05
1.594e-05
4.565e-05
0.0001872
0.0009029
0.001663
0.00212
0.003175
0.01001
0.06902
0.5702
0.8507
0.9515
0.9919
0.9989
0.9998
1
1
1
1
1
1
1
1
1
1
1
1
1
1
1
1
1
1
1
1
1
1
1
1
1
1
1
1
1
1
1
1
1
1
1
1
1
1
1
1
1
1
1
1
1
1
1
1
1
1
1
1
1
1
1
1
1
1
1
1
1
1
1
1
1
1
1
1
1
1
1
1
1
1
1
1
1
1
1
1
1
1
1
1
1
1
1
1
1
1
1.617e-05
2.184e-05
5.658e-05
2.66e-05
2.161e-05
1.166e-05
1.752e-05
3.629e-05
8.721e-05
4.17e-05
6.177e-05
3.974e-05
5.085e-05
6.929e-05
6.072e-05
9.551e-06
1.917e-06
7.564e-08
6.324e-09
1.72e-09
9.746e-09
4.01e-07
2.202e-05
0.0001895
0.0008314
0.0008332
0.001735
0.0031
0.005349
0.005597
0.005041
0.003895
0.004152
0.004306
0.003306
0.002778
0.003544
0.003895
0.005045
0.007446
0.003438
0.001717
0.0009839
0.001032
0.0005107
0.0005228
0.0004403
0.0004571
0.0004217
0.0004447
0.0002728
0.0001536
0.0001148
7.51e-05
6.829e-05
8.459e-05
0.0001816
0.0006289
0.003641
0.009286
0.02994
0.1365
0.5533
0.8618
0.9687
0.9934
0.999
0.9999
1
1
1
1
1
1
1
1
1
1
1
1
1
1
1
1
1
1
1
1
1
1
1
1
1
1
1
1
1
1
1
1
1
1
1
1
1
1
1
1
1
1
1
1
1
1
1
1
1
1
1
1
1
1
1
1
1
1
1
1
1
1
1
1
1
1
1
1
1
1
1
1
1
1
1
1
1
1
1
1
1
1
1
1
1
1
1
1
1
1
1
1
3.525e-05
6.261e-05
0.0002009
0.0001184
5.9e-05
3.136e-05
6.116e-05
9.777e-05
0.0001507
7.885e-05
7.341e-05
6.609e-05
8.553e-05
0.0001087
2.375e-05
1.538e-06
1.52e-07
6.978e-09
1.093e-09
5.448e-10
7.222e-09
3.532e-07
1.777e-05
0.0001954
0.001186
0.001046
0.001741
0.003002
0.004534
0.004198
0.003737
0.002717
0.003518
0.004154
0.005068
0.005561
0.008092
0.007909
0.009338
0.01206
0.006844
0.004722
0.00338
0.003309
0.001421
0.0009723
0.0004973
0.0004543
0.0006799
0.001194
0.001025
0.0005293
0.0003838
0.0002502
0.000398
0.0006357
0.001759
0.005458
0.0353
0.1652
0.5893
0.8736
0.9783
0.9974
0.9998
1
1
1
1
1
1
1
1
1
1
1
1
1
1
1
1
1
1
1
1
1
1
1
1
1
1
1
1
1
1
1
1
1
1
1
1
1
1
1
1
1
1
1
1
1
1
1
1
1
1
1
1
1
1
1
1
1
1
1
1
1
1
1
1
1
1
1
1
1
1
1
1
1
1
1
1
1
1
1
1
1
1
1
1
1
1
1
1
1
1
1
1
1
1
1
2.861e-05
7.388e-05
0.0003273
0.0001914
8.504e-05
7.567e-05
0.0001634
0.0005297
0.0005628
0.0002937
0.0001517
0.0001101
9.587e-05
0.0001115
6.578e-06
3.282e-07
4.447e-08
6.182e-09
2.029e-09
2.055e-09
3.926e-08
1.621e-06
8.937e-05
0.0007764
0.002989
0.001737
0.002255
0.002844
0.004003
0.004041
0.0039
0.003203
0.004766
0.005765
0.005672
0.006012
0.00716
0.004595
0.003188
0.003339
0.003034
0.004122
0.006637
0.008556
0.004139
0.001773
0.0004404
0.0002425
0.0002202
0.0003532
0.0004108
0.0003904
0.000683
0.001272
0.003027
0.008016
0.03368
0.1202
0.674
0.9131
0.9822
0.9971
0.9997
1
1
1
1
1
1
1
1
1
1
1
1
1
1
1
1
1
1
1
1
1
1
1
1
1
1
1
1
1
1
1
1
1
1
1
1
1
1
1
1
1
1
1
1
1
1
1
1
1
1
1
1
1
1
1
1
1
1
1
1
1
1
1
1
1
1
1
1
1
1
1
1
1
1
1
1
1
1
1
1
1
1
1
1
1
1
1
1
1
1
1
1
1
1
1
1
1
6.865e-05
0.0001697
0.000556
0.0003457
9.358e-05
0.0001102
0.0003561
0.001601
0.001568
0.0006372
0.0002453
0.0001388
5.921e-05
5.385e-05
3.211e-06
2.222e-07
9.239e-08
6.216e-08
4.573e-08
8.769e-08
1.287e-06
2.684e-05
0.0006642
0.003675
0.009711
0.005092
0.005433
0.004755
0.004712
0.00389
0.003616
0.003796
0.006682
0.008754
0.007414
0.006824
0.006498
0.003752
0.002169
0.00169
0.001285
0.001795
0.002939
0.004102
0.002732
0.001768
0.0005932
0.0002652
0.0001469
0.0001688
0.0002226
0.0004027
0.001485
0.005902
0.0233
0.1114
0.5979
0.8734
0.9806
0.9971
0.9997
1
1
1
1
1
1
1
1
1
1
1
1
1
1
1
1
1
1
1
1
1
1
1
1
1
1
1
1
1
1
1
1
1
1
1
1
1
1
1
1
1
1
1
1
1
1
1
1
1
1
1
1
1
1
1
1
1
1
1
1
1
1
1
1
1
1
1
1
1
1
1
1
1
1
1
1
1
1
1
1
1
1
1
1
1
1
1
1
1
1
1
1
1
1
1
1
1
1
1
0.0001597
0.0003518
0.001061
0.0006826
0.0001783
0.0002488
0.0005987
0.002463
0.002338
0.0008754
0.0002216
0.0001375
7.393e-05
5.493e-05
5.677e-06
9.77e-07
1.146e-06
2.581e-06
3.545e-06
7.333e-06
5.082e-05
0.0003395
0.002241
0.006245
0.01081
0.006432
0.007309
0.006087
0.005337
0.003716
0.004171
0.006137
0.01226
0.01794
0.0132
0.009447
0.005541
0.002781
0.001333
0.0008854
0.0005778
0.0007848
0.001136
0.001572
0.001846
0.00196
0.001087
0.0006664
0.0003821
0.0002879
0.000291
0.001177
0.008311
0.05768
0.5027
0.8844
0.9823
0.9973
0.9997
1
1
1
1
1
1
1
1
1
1
1
1
1
1
1
1
1
1
1
1
1
1
1
1
1
1
1
1
1
1
1
1
1
1
1
1
1
1
1
1
1
1
1
1
1
1
1
1
1
1
1
1
1
1
1
1
1
1
1
1
1
1
1
1
1
1
1
1
1
1
1
1
1
1
1
1
1
1
1
1
1
1
1
1
1
1
1
1
1
1
1
1
1
1
1
1
1
1
1
1
1
0.0005122
0.001044
0.002416
0.00108
0.0003031
0.00036
0.0004893
0.002164
0.003174
0.00159
0.0005295
0.0005163
0.0003188
0.000222
4.006e-05
1.035e-05
1.302e-05
3.984e-05
7.836e-05
0.0002622
0.0008644
0.001465
0.00214
0.002203
0.002105
0.002305
0.005516
0.004741
0.004191
0.00258
0.002318
0.002829
0.006282
0.01147
0.01096
0.008847
0.005427
0.003121
0.002011
0.001444
0.0008265
0.0007069
0.0006473
0.0006613
0.001019
0.00177
0.002039
0.002194
0.001906
0.001498
0.002987
0.01514
0.2269
0.8157
0.9691
0.9953
0.9995
0.9999
1
1
1
1
1
1
1
1
1
1
1
1
1
1
1
1
1
1
1
1
1
1
1
1
1
1
1
1
0.9999
0.9999
0.9998
0.9998
0.9999
0.9999
0.9998
0.9998
0.9999
0.9999
1
1
1
1
1
1
1
1
1
1
1
1
1
1
1
1
1
1
1
1
1
1
1
1
1
1
1
1
1
1
1
1
1
1
1
1
1
1
1
1
1
1
1
1
1
1
1
1
1
1
1
1
1
1
1
1
1
1
1
1
1
1
1
1
0.0008715
0.001671
0.003495
0.001406
0.0004221
0.0002361
0.0001752
0.0008452
0.002367
0.002576
0.001266
0.002013
0.00133
0.0009127
0.0002989
0.000123
0.0001548
0.0004714
0.0007156
0.001801
0.003245
0.002536
0.001626
0.001025
0.0009228
0.001403
0.005792
0.005021
0.004577
0.002955
0.002311
0.001951
0.003429
0.006739
0.009404
0.01092
0.008893
0.006354
0.005039
0.003381
0.001384
0.0007737
0.0005007
0.0004124
0.0006669
0.001832
0.003439
0.006722
0.01449
0.02578
0.09845
0.6876
0.9548
0.9938
0.9993
0.9999
1
1
1
1
1
1
1
1
1
1
1
1
1
1
1
1
1
1
1
1
1
1
1
1
1
0.9999
0.9997
0.9985
0.9965
0.9941
0.9877
0.9835
0.976
0.9717
0.9768
0.979
0.9754
0.9813
0.9878
0.9913
0.9968
0.9986
0.9992
0.9995
0.9998
0.9999
1
1
1
1
1
1
1
1
1
1
1
1
1
1
1
1
1
1
1
1
1
1
1
1
1
1
1
1
1
1
1
1
1
1
1
1
1
1
1
1
1
1
1
1
1
1
1
1
1
1
1
1
1
1
1
1
1
1
0.001302
0.00229
0.004815
0.001329
0.0004013
9.562e-05
5.226e-05
0.0003006
0.00235
0.005966
0.005666
0.009154
0.005657
0.003775
0.001725
0.001116
0.0008193
0.001763
0.001853
0.003653
0.004684
0.002702
0.001518
0.0008201
0.001243
0.002547
0.01071
0.009396
0.007407
0.004375
0.00302
0.001697
0.00199
0.003559
0.006766
0.01223
0.0162
0.01218
0.0106
0.007081
0.002918
0.001478
0.0007717
0.0005841
0.00105
0.003089
0.007704
0.02239
0.09629
0.4472
0.8717
0.9857
0.9987
0.9998
1
1
1
1
1
1
1
1
1
1
1
1
1
1
1
1
1
1
1
1
1
1
1
0.9998
0.9993
0.9975
0.9945
0.985
0.9721
0.942
0.905
0.806
0.6149
0.4423
0.261
0.1678
0.1438
0.1283
0.1567
0.2229
0.3218
0.3376
0.6751
0.8678
0.9534
0.9797
0.992
0.9957
0.9985
0.9996
0.9999
0.9999
1
1
1
1
1
1
1
1
1
1
1
1
1
1
1
1
1
1
1
1
1
1
1
1
1
1
1
1
1
1
1
1
1
1
1
1
1
1
1
1
1
1
1
1
1
1
1
1
1
1
1
1
1
1
0.001074
0.001626
0.003882
0.001478
0.0009581
0.0001678
7.95e-05
0.0001995
0.00154
0.00301
0.004646
0.007852
0.007435
0.005271
0.00281
0.002529
0.001845
0.003032
0.00422
0.005618
0.005208
0.003136
0.002073
0.001325
0.001442
0.002202
0.007225
0.007717
0.008656
0.00701
0.004985
0.002091
0.001726
0.002122
0.004513
0.01005
0.01616
0.01107
0.009523
0.006972
0.003559
0.002092
0.001392
0.001702
0.003792
0.01348
0.04376
0.2092
0.7641
0.9555
0.9952
0.9996
1
1
1
1
1
1
1
1
1
1
1
1
1
1
1
1
1
1
1
1
1
1
0.9997
0.999
0.996
0.9828
0.946
0.8654
0.6997
0.3124
0.1511
0.08057
0.0369
0.01662
0.008306
0.006865
0.007464
0.008373
0.006842
0.005581
0.008558
0.01214
0.01365
0.01411
0.01955
0.02943
0.07249
0.1693
0.3575
0.664
0.8749
0.9686
0.9906
0.9956
0.999
0.9997
0.9999
0.9999
1
1
1
1
1
1
1
1
1
1
1
1
1
1
1
1
1
1
1
1
1
1
1
1
1
1
1
1
1
1
1
1
1
1
1
1
1
1
1
1
1
1
1
1
1
1
1
0.9997
0.9987
0.9956
0.0009428
0.001066
0.002755
0.001631
0.001908
0.0002887
0.0001657
0.0001781
0.0007874
0.0015
0.003089
0.004831
0.006748
0.006106
0.002756
0.00227
0.001949
0.003528
0.007699
0.009489
0.007432
0.004921
0.004234
0.003456
0.003326
0.003225
0.006051
0.006491
0.008262
0.008647
0.006555
0.002394
0.001978
0.001957
0.003851
0.008107
0.01368
0.009454
0.008445
0.006243
0.003872
0.003229
0.003293
0.00515
0.01609
0.07259
0.4587
0.883
0.9866
0.9986
0.9999
1
1
1
1
1
1
1
1
1
1
1
1
1
1
1
1
1
1
1
1
1
0.9997
0.9966
0.9775
0.933
0.7989
0.4889
0.1498
0.05755
0.01576
0.008147
0.005747
0.003463
0.001504
0.0008485
0.0003803
0.0003801
0.0006555
0.0009245
0.0008253
0.0007565
0.00129
0.001906
0.00194
0.002059
0.00185
0.001849
0.003518
0.006783
0.009326
0.01899
0.05053
0.1598
0.4815
0.7456
0.9301
0.9795
0.9925
0.9963
0.9993
0.9998
1
1
1
1
1
1
1
1
1
1
1
1
1
1
1
1
1
1
1
1
1
1
1
1
1
1
1
1
1
1
1
1
1
1
1
1
1
1
1
1
1
0.9999
0.9996
0.9977
0.99
0.9634
0.9076
0.8407
0.00111
0.0007979
0.002237
0.001368
0.002102
0.0003695
0.0002464
0.0001386
0.0003366
0.0006914
0.001684
0.003239
0.00693
0.007896
0.002798
0.001934
0.002202
0.005134
0.006184
0.004209
0.002088
0.00193
0.004033
0.008599
0.008313
0.004603
0.004239
0.00482
0.007004
0.008202
0.007481
0.003956
0.003615
0.002632
0.003022
0.003391
0.003971
0.002985
0.004174
0.004531
0.004224
0.005252
0.008731
0.02227
0.1328
0.6706
0.9447
0.9948
0.9996
1
1
1
1
1
1
1
1
1
1
1
1
1
1
1
1
1
1
1
1
0.9999
0.999
0.9951
0.9674
0.8413
0.5316
0.1683
0.04813
0.01279
0.004077
0.00219
0.0008526
0.0006358
0.0005335
0.0004267
0.0001922
0.000177
0.0001065
0.0001227
0.0001904
0.0002927
0.0002839
0.0002688
0.0004216
0.0006162
0.0005002
0.0004221
0.0003026
0.0002673
0.0004213
0.000599
0.0006386
0.001117
0.002634
0.007594
0.02075
0.05912
0.1473
0.3861
0.7675
0.9398
0.9958
0.9996
0.9999
1
1
1
1
1
1
1
1
1
1
1
1
1
1
1
1
1
1
1
1
1
1
1
1
1
1
1
1
1
1
1
1
1
1
1
1
0.9998
0.9994
0.9975
0.993
0.9761
0.9202
0.7627
0.5852
0.4167
0.2885
0.07912
0.001196
0.0006926
0.0024
0.001389
0.001867
0.0003906
0.0002438
0.0001443
0.0003902
0.0007028
0.001024
0.001749
0.004814
0.007298
0.002308
0.001496
0.001416
0.003118
0.003217
0.002692
0.0009606
0.0009459
0.002154
0.008889
0.01037
0.006008
0.004774
0.004921
0.007188
0.008081
0.008236
0.006623
0.007281
0.005435
0.00414
0.002451
0.001727
0.001353
0.002643
0.004802
0.0087
0.01642
0.05515
0.2611
0.8341
0.9744
0.9978
0.9998
1
1
1
1
1
1
1
1
1
1
1
1
1
1
1
1
1
1
1
0.9998
0.9982
0.99
0.9343
0.7834
0.2275
0.04966
0.01649
0.008157
0.003213
0.001216
0.0005112
0.0003044
0.000188
0.0002147
0.0002154
0.0002764
0.0001959
0.0002622
0.0001909
0.0002536
0.0003568
0.0005588
0.0004867