/*--------------------------------*- C++ -*----------------------------------*\
| =========                 |                                                 |
| \\      /  F ield         | OpenFOAM: The Open Source CFD Toolbox           |
|  \\    /   O peration     | Version:  5.x                                   |
|   \\  /    A nd           | Web:      www.OpenFOAM.org                      |
|    \\/     M anipulation  |                                                 |
\*---------------------------------------------------------------------------*/
FoamFile
{
    version     2.0;
    format      ascii;
    class       volSymmTensorField;
    location    "35";
    object      sigmaD;
}
// * * * * * * * * * * * * * * * * * * * * * * * * * * * * * * * * * * * * * //

dimensions      [0 2 -2 0 0 0 0];

internalField   nonuniform List<symmTensor> 
80000
(
(56259 4125.8 0 3035.7 0 13683)
(42658 1685.6 0 196.46 0 9889.5)
(37999 867.74 0 -73.427 0 8751.9)
(35357 585.73 0 -13.49 0 8156.2)
(33469 461.2 0 25.114 0 7729.4)
(31956 386.99 0 33.543 0 7382.2)
(30677 335.11 0 31.411 0 7086.7)
(29563 296.8 0 27.589 0 6828.5)
(28568 267.81 0 24.381 0 6598.2)
(27664 245.36 0 21.966 0 6389)
(26830 227.48 0 20.099 0 6196.2)
(26053 212.8 0 18.552 0 6016.5)
(25323 200.38 0 17.183 0 5847.7)
(24634 189.56 0 15.916 0 5688.3)
(23980 179.91 0 14.71 0 5537.2)
(23358 171.11 0 13.55 0 5393.5)
(22767 162.96 0 12.43 0 5256.7)
(22203 155.3 0 11.353 0 5126.4)
(21665 148.04 0 10.322 0 5002.1)
(21153 141.09 0 9.3419 0 4883.7)
(20665 134.4 0 8.4179 0 4770.8)
(20200 127.94 0 7.5539 0 4663.4)
(19758 121.65 0 6.7538 0 4561.2)
(19339 115.53 0 6.02 0 4464.1)
(18940 109.54 0 5.3545 0 4372.1)
(18563 103.66 0 4.7585 0 4285)
(18207 97.877 0 4.233 0 4202.6)
(17872 92.18 0 3.7787 0 4125.1)
(17556 86.554 0 3.3965 0 4052.2)
(17261 80.992 0 3.087 0 3984)
(16985 75.483 0 2.8508 0 3920.3)
(16729 70.024 0 2.6881 0 3861.3)
(16493 64.611 0 2.5996 0 3806.7)
(16276 59.243 0 2.5858 0 3756.6)
(16078 53.923 0 2.6472 0 3711)
(15899 48.653 0 2.7843 0 3669.7)
(15740 43.441 0 2.9971 0 3632.9)
(15598 38.297 0 3.2854 0 3600.3)
(15475 33.234 0 3.6489 0 3572.1)
(15370 28.27 0 4.0862 0 3548)
(15283 23.425 0 4.5957 0 3528)
(15213 18.728 0 5.1744 0 3511.9)
(15160 14.207 0 5.8186 0 3499.8)
(15122 9.9011 0 6.5231 0 3491.3)
(15100 5.8504 0 7.2815 0 3486.3)
(15092 2.1016 0 8.0854 0 3484.6)
(15097 -1.2947 0 8.9255 0 3485.9)
(15113 -4.2854 0 9.7905 0 3489.8)
(15139 -6.8166 0 10.668 0 3496.1)
(15173 -8.8359 0 11.544 0 3504.2)
(15214 -10.296 0 12.405 0 3513.7)
(15258 -11.158 0 13.236 0 3524.1)
(15304 -11.397 0 14.024 0 3535)
(15350 -11.001 0 14.755 0 3545.7)
(15392 -9.9805 0 15.417 0 3555.7)
(15430 -8.3668 0 16 0 3564.4)
(15460 -6.2133 0 16.497 0 3571.5)
(15481 -3.5952 0 16.899 0 3576.5)
(15492 -0.60607 0 17.203 0 3578.9)
(15490 2.6469 0 17.406 0 3578.6)
(15476 6.0489 0 17.504 0 3575.4)
(15449 9.4847 0 17.499 0 3569.2)
(15409 12.845 0 17.389 0 3559.9)
(15357 16.033 0 17.177 0 3547.9)
(15293 18.968 0 16.866 0 3533.1)
(15219 21.59 0 16.464 0 3515.9)
(15136 23.857 0 15.977 0 3496.6)
(15045 25.747 0 15.415 0 3475.4)
(14948 27.253 0 14.791 0 3452.9)
(14845 28.383 0 14.116 0 3429.1)
(14740 29.155 0 13.404 0 3404.6)
(14632 29.593 0 12.667 0 3379.6)
(14523 29.73 0 11.917 0 3354.3)
(14415 29.6 0 11.164 0 3329)
(14307 29.242 0 10.417 0 3304)
(14201 28.699 0 9.6815 0 3279.4)
(14098 28.01 0 8.9637 0 3255.4)
(13997 27.22 0 8.2679 0 3231.9)
(13899 26.366 0 7.5976 0 3209.3)
(13805 25.485 0 6.9556 0 3187.4)
(13714 24.608 0 6.3431 0 3166.2)
(13626 23.761 0 5.7593 0 3145.8)
(13542 22.966 0 5.2038 0 3126.2)
(13460 22.24 0 4.6754 0 3107.2)
(13380 21.591 0 4.1697 0 3088.7)
(13303 21.025 0 3.6848 0 3070.8)
(13228 20.541 0 3.2232 0 3053.4)
(13155 20.138 0 2.7827 0 3036.4)
(13083 19.807 0 2.3562 0 3019.6)
(13012 19.53 0 1.9402 0 3003.1)
(12942 19.303 0 1.531 0 2986.9)
(12873 19.133 0 1.1171 0 2970.9)
(12804 19.012 0 0.70684 0 2955)
(12736 18.926 0 0.32064 0 2939.1)
(12668 18.862 0 -0.060958 0 2923.3)
(12600 18.804 0 -0.44615 0 2907.7)
(12532 18.734 0 -0.8062 0 2891.9)
(12465 18.658 0 -1.1681 0 2876.2)
(12398 18.598 0 -1.5486 0 2860.8)
(12331 18.54 0 -1.8941 0 2845.2)
(12264 18.459 0 -2.2012 0 2829.6)
(12197 18.31 0 -2.5049 0 2814.1)
(12131 18.086 0 -2.8023 0 2798.8)
(12065 17.819 0 -3.1242 0 2783.6)
(12002 17.576 0 -3.4962 0 2768.9)
(11939 17.39 0 -3.8603 0 2754.2)
(11876 17.221 0 -4.1955 0 2739.7)
(11814 17.052 0 -4.5264 0 2725.3)
(11753 16.882 0 -4.8543 0 2711)
(11692 16.707 0 -5.1767 0 2696.9)
(11632 16.524 0 -5.4917 0 2683)
(11572 16.324 0 -5.7987 0 2669.2)
(11513 16.102 0 -6.0978 0 2655.5)
(11455 15.848 0 -6.3883 0 2642.1)
(11399 15.557 0 -6.6693 0 2628.9)
(11343 15.222 0 -6.9393 0 2616)
(11288 14.837 0 -7.1969 0 2603.3)
(11235 14.399 0 -7.4409 0 2591)
(11184 13.905 0 -7.6698 0 2579.2)
(11135 13.356 0 -7.8826 0 2567.7)
(11087 12.754 0 -8.0782 0 2556.8)
(11042 12.103 0 -8.2554 0 2546.3)
(11000 11.409 0 -8.4135 0 2536.5)
(10960 10.679 0 -8.5515 0 2527.3)
(10923 9.9206 0 -8.6686 0 2518.7)
(10889 9.142 0 -8.7639 0 2510.8)
(10857 8.3494 0 -8.8367 0 2503.5)
(10829 7.5476 0 -8.8859 0 2496.9)
(10803 6.7391 0 -8.9109 0 2491)
(10781 5.9239 0 -8.9106 0 2485.8)
(10761 5.0995 0 -8.8842 0 2481.3)
(10745 4.2613 0 -8.8309 0 2477.5)
(10731 3.4029 0 -8.75 0 2474.5)
(10721 2.517 0 -8.6407 0 2472.1)
(10714 1.5968 0 -8.5026 0 2470.6)
(10711 0.63608 0 -8.3352 0 2469.8)
(10711 -0.36911 0 -8.1384 0 2469.9)
(10715 -1.4203 0 -7.9119 0 2470.9)
(10723 -2.5162 0 -7.6555 0 2472.7)
(10735 -3.6526 0 -7.3691 0 2475.6)
(10751 -4.8232 0 -7.0523 0 2479.4)
(10771 -6.0194 0 -6.7048 0 2484.2)
(10796 -7.2321 0 -6.3262 0 2490)
(10826 -8.4516 0 -5.916 0 2496.9)
(10860 -9.6683 0 -5.4741 0 2504.8)
(10898 -10.873 0 -5.0005 0 2513.8)
(10941 -12.058 0 -4.4957 0 2523.8)
(10988 -13.215 0 -3.9609 0 2534.7)
(11039 -14.335 0 -3.3976 0 2546.7)
(11094 -15.41 0 -2.808 0 2559.5)
(11153 -16.428 0 -2.1952 0 2573.3)
(11216 -17.378 0 -1.5623 0 2587.9)
(11282 -18.247 0 -0.91347 0 2603.3)
(11351 -19.018 0 -0.25292 0 2619.3)
(11422 -19.676 0 0.41431 0 2636)
(11496 -20.201 0 1.0828 0 2653.1)
(11571 -20.577 0 1.7464 0 2670.7)
(11647 -20.783 0 2.3984 0 2688.4)
(11724 -20.801 0 3.0314 0 2706.2)
(11800 -20.616 0 3.6374 0 2724)
(11875 -20.212 0 4.2081 0 2741.4)
(11948 -19.58 0 4.7351 0 2758.4)
(12018 -18.714 0 5.2101 0 2774.6)
(12084 -17.616 0 5.6257 0 2790)
(12146 -16.296 0 5.9757 0 2804.3)
(12202 -14.778 0 6.2557 0 2817.3)
(12252 -13.095 0 6.4635 0 2828.9)
(12296 -11.299 0 6.5998 0 2839)
(12332 -9.4508 0 6.6678 0 2847.4)
(12361 -7.6286 0 6.6741 0 2854.1)
(12384 -5.9184 0 6.6273 0 2859.3)
(12400 -4.4118 0 6.5383 0 2863.1)
(12411 -3.199 0 6.419 0 2865.6)
(12418 -2.3609 0 6.2818 0 2867.2)
(12423 -1.9611 0 6.1383 0 2868.3)
(12427 -2.0377 0 5.9992 0 2869.2)
(12433 -2.5974 0 5.8733 0 2870.4)
(12441 -3.6116 0 5.7678 0 2872.3)
(12454 -5.0169 0 5.6881 0 2875.3)
(12473 -6.7181 0 5.6382 0 2879.7)
(12499 -8.5962 0 5.6213 0 2885.6)
(12532 -10.518 0 5.6401 0 2893.3)
(12572 -12.35 0 5.697 0 2902.6)
(12619 -13.968 0 5.7938 0 2913.5)
(12672 -15.271 0 5.9317 0 2925.7)
(12729 -16.184 0 6.1103 0 2938.9)
(12789 -16.67 0 6.3273 0 2952.7)
(12849 -16.721 0 6.5781 0 2966.8)
(12910 -16.363 0 6.8556 0 2980.7)
(12968 -15.643 0 7.1505 0 2994.2)
(13023 -14.622 0 7.4515 0 3007)
(13074 -13.37 0 7.7466 0 3018.8)
(13119 -11.953 0 8.0233 0 3029.4)
(13160 -10.432 0 8.2704 0 3038.8)
(13194 -8.8542 0 8.478 0 3046.8)
(13223 -7.2563 0 8.6387 0 3053.4)
(13245 -5.6626 0 8.7473 0 3058.7)
(13262 -4.0882 0 8.8012 0 3062.5)
(13273 -2.5427 0 8.8 0 3065.1)
(13279 -1.0334 0 8.7452 0 3066.3)
(13278 0.4311 0 8.6396 0 3066.2)
(13273 1.8383 0 8.4871 0 3064.9)
(13262 3.1703 0 8.2923 0 3062.4)
(13247 4.4029 0 8.0607 0 3058.8)
(13227 5.5054 0 7.7981 0 3054.2)
(13203 6.442 0 7.5117 0 3048.7)
(13177 7.1721 0 7.2094 0 3042.4)
(13148 7.6526 0 6.9003 0 3035.7)
(13117 7.8393 0 6.595 0 3028.6)
(13087 7.6893 0 6.3053 0 3021.5)
(13058 7.1631 0 6.0438 0 3014.7)
(13031 6.2277 0 5.8243 0 3008.6)
(13009 4.8589 0 5.6604 0 3003.4)
(12993 3.044 0 5.5661 0 2999.6)
(12984 0.78429 0 5.5547 0 2997.7)
(12985 -1.9039 0 5.639 0 2997.8)
(12997 -4.9883 0 5.831 0 3000.6)
(13020 -8.4215 0 6.1421 0 3006.1)
(13058 -12.142 0 6.5821 0 3014.8)
(13109 -16.077 0 7.1601 0 3026.9)
(13176 -20.145 0 7.883 0 3042.5)
(13259 -24.256 0 8.7558 0 3061.7)
(13356 -28.317 0 9.7801 0 3084.5)
(13469 -32.228 0 10.954 0 3110.8)
(13597 -35.888 0 12.271 0 3140.5)
(13737 -39.189 0 13.721 0 3173.3)
(13889 -42.022 0 15.289 0 3208.8)
(14051 -44.274 0 16.955 0 3246.6)
(14221 -45.832 0 18.696 0 3286.1)
(14395 -46.589 0 20.49 0 3326.7)
(14571 -46.45 0 22.311 0 3367.7)
(14745 -45.336 0 24.136 0 3408.2)
(14913 -43.198 0 25.942 0 3447.4)
(15071 -40.017 0 27.706 0 3484.3)
(15216 -35.808 0 29.408 0 3518.2)
(15344 -30.623 0 31.029 0 3548.1)
(15451 -24.545 0 32.549 0 3573.2)
(15535 -17.683 0 33.951 0 3592.8)
(15592 -10.161 0 35.216 0 3606.2)
(15620 -2.1122 0 36.326 0 3613.1)
(15618 6.3364 0 37.265 0 3612.8)
(15585 15.07 0 38.018 0 3605.3)
(15519 23.994 0 38.57 0 3590.3)
(15421 33.042 0 38.909 0 3567.6)
(15289 42.175 0 39.022 0 3537.2)
(15123 51.386 0 38.898 0 3499)
(14924 60.697 0 38.522 0 3453)
(14691 70.155 0 37.883 0 3399)
(14423 79.831 0 36.967 0 3336.9)
(14119 89.812 0 35.764 0 3266.4)
(13777 100.23 0 34.223 0 3187.2)
(13397 111.29 0 32.281 0 3099.1)
(12975 123.21 0 29.914 0 3001.1)
(12508 136.11 0 27.163 0 2892.7)
(11988 149.9 0 24.014 0 2772)
(11415 164.55 0 20.25 0 2638.9)
(10782 180.24 0 15.424 0 2491.7)
(10090 197.86 0 8.8674 0 2330.4)
(9327.1 218.88 0 0.12793 0 2152.4)
(8474.7 244.5 0 -10.768 0 1953.2)
(7505.4 275.38 0 -23.097 0 1726.7)
(6392.7 311.81 0 -34.652 0 1467.2)
(5109.6 350.76 0 -40.188 0 1169.9)
(3603.9 366.21 0 -32.797 0 824.1)
(1887.3 273.92 0 -11.316 0 432.93)
(295.36 41.115 0 6.1259 0 69.573)
(7.6284 0.68687 0 0.22382 0 1.8121)
(0.25568 0.015558 0 0.005523 0 0.060279)
(0.012698 0.00056747 0 0.00020423 0 0.0029775)
(0.0012443 4.863e-05 0 1.0183e-05 0 0.00028949)
(0.000371 1.4211e-05 0 4.0352e-06 0 8.6547e-05)
(0.00023649 5.7532e-06 0 2.6703e-06 0 5.519e-05)
(0.00023397 4.4978e-06 0 2.5648e-06 0 5.4584e-05)
(0.00024465 4.9721e-07 0 -1.2969e-06 0 5.6159e-05)
(0.00026419 2.3092e-06 0 -2.4894e-06 0 6.0392e-05)
(0.00024154 4.5769e-06 0 -2.4552e-07 0 5.5684e-05)
(0.00020404 4.0135e-06 0 3.0769e-06 0 4.7797e-05)
(0.00016966 1.3019e-06 0 4.5337e-06 0 4.0198e-05)
(0.00016633 -4.0493e-06 0 6.3484e-06 0 3.9848e-05)
(0.00018528 -1.3844e-05 0 8.6154e-06 0 4.4745e-05)
(0.00029931 -3.2166e-05 0 3.9521e-06 0 6.9983e-05)
(0.00046967 -4.0227e-05 0 -5.6555e-06 0 0.00010708)
(0.00068784 -1.9058e-05 0 -1.7644e-05 0 0.00015466)
(0.00080464 2.6434e-05 0 -2.9226e-05 0 0.00017894)
(0.00061356 4.1888e-05 0 -1.7812e-05 0 0.00013748)
(0.00049602 3.7456e-05 0 -3.1447e-06 0 0.00011374)
(0.00035872 2.4146e-05 0 7.473e-06 0 8.4507e-05)
(0.00030865 1.6651e-05 0 6.4011e-06 0 7.2704e-05)
(0.00028369 9.2639e-06 0 3.4055e-06 0 6.6254e-05)
(0.00033199 7.1412e-06 0 -5.3686e-08 0 7.66e-05)
(0.00029879 6.2972e-06 0 -2.0045e-06 0 6.849e-05)
(0.00027229 6.0439e-06 0 -1.1283e-06 0 6.2575e-05)
(0.00025184 5.6793e-06 0 -4.5833e-07 0 5.801e-05)
(0.00023463 5.155e-06 0 -2.4418e-07 0 5.4089e-05)
(0.00021873 4.5073e-06 0 -2.3081e-07 0 5.0423e-05)
(0.00020562 3.8576e-06 0 -2.9023e-07 0 4.7385e-05)
(0.00019489 3.2976e-06 0 -3.6605e-07 0 4.4891e-05)
(0.00018537 2.8246e-06 0 -4.2698e-07 0 4.2678e-05)
(0.00017787 2.4774e-06 0 -4.6267e-07 0 4.0941e-05)
(0.00017055 2.2203e-06 0 -4.7193e-07 0 3.9249e-05)
(0.0001641 1.9883e-06 0 -4.602e-07 0 3.7763e-05)
(0.00015827 1.7512e-06 0 -4.3327e-07 0 3.6423e-05)
(0.00015309 1.4942e-06 0 -3.9089e-07 0 3.5239e-05)
(0.00014901 1.2161e-06 0 -3.445e-07 0 3.4308e-05)
(0.00014593 9.2107e-07 0 -2.8845e-07 0 3.361e-05)
(0.00014374 6.0072e-07 0 -2.2166e-07 0 3.3119e-05)
(0.00014306 2.7022e-07 0 -1.4764e-07 0 3.298e-05)
(0.00014369 -4.1036e-08 0 -5.631e-08 0 3.3145e-05)
(0.00014497 -3.1291e-07 0 5.8348e-08 0 3.3468e-05)
(0.00014668 -5.052e-07 0 1.7538e-07 0 3.3889e-05)
(0.00014723 -5.994e-07 0 2.9427e-07 0 3.4044e-05)
(0.00014573 -7.2615e-07 0 3.851e-07 0 3.3719e-05)
(0.00014343 -1.4756e-06 0 7.1753e-08 0 3.3117e-05)
(0.00016376 -1.8406e-06 0 -1.6132e-06 0 3.7419e-05)
(0.00021123 2.4878e-06 0 -3.9194e-06 0 4.784e-05)
(0.00015226 5.7851e-06 0 -1.0764e-06 0 3.4889e-05)
(0.00011774 4.909e-06 0 3.6445e-07 0 2.7256e-05)
(0.00010934 2.8328e-06 0 6.7485e-07 0 2.5388e-05)
(0.00011025 1.4865e-06 0 4.5796e-07 0 2.5549e-05)
(0.00010681 8.4219e-07 0 2.1247e-07 0 2.4698e-05)
(0.00010497 5.7239e-07 0 1.2981e-07 0 2.4254e-05)
(0.0001029 4.5705e-07 0 9.7268e-08 0 2.377e-05)
(0.00010117 3.8468e-07 0 8.522e-08 0 2.3367e-05)
(9.9814e-05 3.2408e-07 0 7.0958e-08 0 2.305e-05)
(9.8724e-05 2.7408e-07 0 5.5344e-08 0 2.2795e-05)
(9.7812e-05 2.3634e-07 0 4.276e-08 0 2.2582e-05)
(9.7016e-05 2.0965e-07 0 3.439e-08 0 2.2396e-05)
(9.6303e-05 1.9154e-07 0 2.9285e-08 0 2.2231e-05)
(9.5647e-05 1.8001e-07 0 2.6198e-08 0 2.2078e-05)
(9.5027e-05 1.7374e-07 0 2.4362e-08 0 2.1935e-05)
(9.4424e-05 1.7186e-07 0 2.337e-08 0 2.1796e-05)
(9.3823e-05 1.7381e-07 0 2.2975e-08 0 2.1657e-05)
(9.3211e-05 1.7914e-07 0 2.3005e-08 0 2.1516e-05)
(9.2577e-05 1.8752e-07 0 2.3328e-08 0 2.1369e-05)
(9.1908e-05 1.9868e-07 0 2.3845e-08 0 2.1215e-05)
(9.1197e-05 2.1236e-07 0 2.4478e-08 0 2.1051e-05)
(9.0433e-05 2.283e-07 0 2.5159e-08 0 2.0875e-05)
(8.9609e-05 2.4624e-07 0 2.5832e-08 0 2.0685e-05)
(8.8718e-05 2.6594e-07 0 2.6442e-08 0 2.048e-05)
(8.7755e-05 2.8711e-07 0 2.694e-08 0 2.0257e-05)
(8.6714e-05 3.095e-07 0 2.728e-08 0 2.0017e-05)
(8.5591e-05 3.3286e-07 0 2.7423e-08 0 1.9758e-05)
(8.4383e-05 3.5693e-07 0 2.7334e-08 0 1.9479e-05)
(8.3087e-05 3.8149e-07 0 2.6986e-08 0 1.918e-05)
(8.1704e-05 4.0631e-07 0 2.6358e-08 0 1.8861e-05)
(8.0231e-05 4.312e-07 0 2.5436e-08 0 1.8521e-05)
(7.8669e-05 4.5596e-07 0 2.4209e-08 0 1.816e-05)
(7.7018e-05 4.8039e-07 0 2.2672e-08 0 1.7779e-05)
(7.5281e-05 5.0433e-07 0 2.0826e-08 0 1.7377e-05)
(7.3459e-05 5.2761e-07 0 1.8673e-08 0 1.6956e-05)
(7.1554e-05 5.5006e-07 0 1.6217e-08 0 1.6516e-05)
(6.9571e-05 5.7154e-07 0 1.3468e-08 0 1.6058e-05)
(6.7513e-05 5.9191e-07 0 1.0434e-08 0 1.5582e-05)
(6.5383e-05 6.1103e-07 0 7.1291e-09 0 1.509e-05)
(6.3187e-05 6.288e-07 0 3.5675e-09 0 1.4582e-05)
(6.093e-05 6.4509e-07 0 -2.3419e-10 0 1.4061e-05)
(5.8617e-05 6.598e-07 0 -4.2574e-09 0 1.3526e-05)
(5.6254e-05 6.7284e-07 0 -8.4821e-09 0 1.298e-05)
(5.3847e-05 6.8412e-07 0 -1.2886e-08 0 1.2423e-05)
(5.1403e-05 6.9357e-07 0 -1.7448e-08 0 1.1858e-05)
(4.8928e-05 7.011e-07 0 -2.2141e-08 0 1.1286e-05)
(4.6429e-05 7.0667e-07 0 -2.6941e-08 0 1.0708e-05)
(4.3914e-05 7.1021e-07 0 -3.1822e-08 0 1.0127e-05)
(4.1389e-05 7.1167e-07 0 -3.6754e-08 0 9.5429e-06)
(3.8863e-05 7.1101e-07 0 -4.1711e-08 0 8.9588e-06)
(3.6343e-05 7.0819e-07 0 -4.6662e-08 0 8.3761e-06)
(3.3837e-05 7.0319e-07 0 -5.1576e-08 0 7.7966e-06)
(3.1352e-05 6.9598e-07 0 -5.6422e-08 0 7.2221e-06)
(2.8897e-05 6.8655e-07 0 -6.1167e-08 0 6.6545e-06)
(2.648e-05 6.7489e-07 0 -6.5777e-08 0 6.0956e-06)
(2.4109e-05 6.61e-07 0 -7.0219e-08 0 5.5474e-06)
(2.1791e-05 6.4489e-07 0 -7.4457e-08 0 5.0115e-06)
(1.9535e-05 6.2657e-07 0 -7.8454e-08 0 4.49e-06)
(1.7349e-05 6.0606e-07 0 -8.2173e-08 0 3.9846e-06)
(1.524e-05 5.8341e-07 0 -8.5576e-08 0 3.4971e-06)
(1.3216e-05 5.5864e-07 0 -8.8622e-08 0 3.0294e-06)
(1.1285e-05 5.3183e-07 0 -9.1272e-08 0 2.5831e-06)
(9.454e-06 5.0302e-07 0 -9.3483e-08 0 2.1601e-06)
(7.7302e-06 4.723e-07 0 -9.5214e-08 0 1.7619e-06)
(6.1204e-06 4.3977e-07 0 -9.642e-08 0 1.3902e-06)
(4.6311e-06 4.0553e-07 0 -9.7058e-08 0 1.0463e-06)
(3.2683e-06 3.6972e-07 0 -9.7083e-08 0 7.3181e-07)
(2.0375e-06 3.3248e-07 0 -9.6449e-08 0 4.4793e-07)
(9.4373e-07 2.9402e-07 0 -9.5111e-08 0 1.9583e-07)
(-8.7475e-09 2.5453e-07 0 -9.3025e-08 0 -2.3486e-08)
(-8.1649e-07 2.1429e-07 0 -9.015e-08 0 -2.0922e-07)
(-1.477e-06 1.7361e-07 0 -8.6448e-08 0 -3.6081e-07)
(-1.9892e-06 1.3285e-07 0 -8.1888e-08 0 -4.7794e-07)
(-2.3532e-06 9.2482e-08 0 -7.6453e-08 0 -5.6068e-07)
(-2.571e-06 5.3067e-08 0 -7.0148e-08 0 -6.095e-07)
(-2.647e-06 1.5308e-08 0 -6.301e-08 0 -6.2539e-07)
(-2.5884e-06 -1.9909e-08 0 -5.5117e-08 0 -6.1004e-07)
(-2.4062e-06 -5.1489e-08 0 -4.6618e-08 0 -5.6604e-07)
(-2.1167e-06 -7.8067e-08 0 -3.7839e-08 0 -4.9719e-07)
(-1.7414e-06 -9.7746e-08 0 -2.9554e-08 0 -4.0869e-07)
(-1.3072e-06 -1.0765e-07 0 -2.3037e-08 0 -3.0699e-07)
(-8.6238e-07 -1.0543e-07 0 -2.0093e-08 0 -2.0365e-07)
(-4.6019e-07 -8.9308e-08 0 -2.2927e-08 0 -1.1149e-07)
(-1.6186e-07 -5.9855e-08 0 -2.9646e-08 0 -4.4194e-08)
(-1.4903e-08 -2.5451e-08 0 -1.4843e-08 0 -6.8643e-09)
(38463 9519.5 0 5679.5 0 10187)
(39492 6242.6 0 1749.3 0 9517.2)
(37277 4207.6 0 649.26 0 8752.3)
(34990 3028.3 0 388.8 0 8164.3)
(33135 2365 0 296.73 0 7715)
(31632 1962.5 0 230.09 0 7352.7)
(30365 1692.5 0 174.87 0 7047.7)
(29262 1498.2 0 132.49 0 6783.4)
(28277 1352.1 0 101.91 0 6549.1)
(27383 1238.6 0 80.445 0 6337.8)
(26561 1147.9 0 65.489 0 6144.6)
(25797 1073.1 0 55.018 0 5965.8)
(25082 1009.8 0 47.607 0 5799.1)
(24408 954.67 0 42.282 0 5642.5)
(23772 905.54 0 38.383 0 5494.7)
(23168 860.87 0 35.465 0 5354.6)
(22594 819.57 0 33.227 0 5221.7)
(22048 780.88 0 31.468 0 5095.2)
(21527 744.26 0 30.051 0 4974.8)
(21032 709.31 0 28.886 0 4860.1)
(20559 675.72 0 27.911 0 4750.9)
(20109 643.27 0 27.086 0 4646.9)
(19681 611.79 0 26.382 0 4547.9)
(19274 581.12 0 25.781 0 4453.8)
(18887 551.14 0 25.267 0 4364.4)
(18521 521.76 0 24.827 0 4279.7)
(18174 492.87 0 24.45 0 4199.5)
(17846 464.43 0 24.127 0 4123.8)
(17537 436.35 0 23.849 0 4052.5)
(17247 408.6 0 23.61 0 3985.6)
(16976 381.14 0 23.398 0 3922.9)
(16723 353.93 0 23.204 0 3864.4)
(16488 326.97 0 23.018 0 3810.2)
(16271 300.25 0 22.832 0 3760.1)
(16072 273.77 0 22.635 0 3714.1)
(15890 247.56 0 22.415 0 3672.1)
(15726 221.65 0 22.16 0 3634.2)
(15579 196.09 0 21.856 0 3600.2)
(15449 170.95 0 21.487 0 3570)
(15335 146.32 0 21.037 0 3543.7)
(15238 122.28 0 20.486 0 3521.1)
(15156 98.988 0 19.812 0 3502.1)
(15089 76.578 0 18.993 0 3486.5)
(15037 55.231 0 18.006 0 3474.2)
(14999 35.147 0 16.827 0 3465.1)
(14973 16.55 0 15.437 0 3458.9)
(14959 -0.31872 0 13.818 0 3455.3)
(14956 -15.203 0 11.961 0 3454.1)
(14962 -27.845 0 9.8648 0 3455)
(14975 -37.994 0 7.5428 0 3457.6)
(14995 -45.425 0 5.0225 0 3461.5)
(15019 -49.954 0 2.3491 0 3466.4)
(15045 -51.455 0 -0.4146 0 3471.8)
(15071 -49.882 0 -3.1889 0 3477.3)
(15096 -45.28 0 -5.8808 0 3482.4)
(15118 -37.8 0 -8.3897 0 3486.9)
(15135 -27.699 0 -10.615 0 3490.2)
(15145 -15.336 0 -12.463 0 3492)
(15147 -1.1615 0 -13.86 0 3492.2)
(15140 14.31 0 -14.757 0 3490.4)
(15123 30.529 0 -15.135 0 3486.5)
(15097 46.938 0 -15.008 0 3480.4)
(15060 63.015 0 -14.419 0 3472.1)
(15014 78.292 0 -13.437 0 3461.7)
(14959 92.382 0 -12.146 0 3449.3)
(14896 104.99 0 -10.637 0 3435)
(14825 115.91 0 -8.9979 0 3419.1)
(14748 125.05 0 -7.3063 0 3401.7)
(14666 132.35 0 -5.6277 0 3383.1)
(14579 137.86 0 -4.013 0 3363.5)
(14490 141.66 0 -2.5003 0 3343.3)
(14399 143.86 0 -1.1168 0 3322.5)
(14306 144.61 0 0.1185 0 3301.5)
(14214 144.08 0 1.1909 0 3280.3)
(14121 142.46 0 2.088 0 3259.3)
(14031 139.93 0 2.8009 0 3238.5)
(13941 136.7 0 3.3278 0 3218)
(13854 132.96 0 3.6749 0 3197.9)
(13769 128.92 0 3.8551 0 3178.4)
(13687 124.73 0 3.8886 0 3159.4)
(13607 120.55 0 3.7974 0 3140.9)
(13529 116.51 0 3.5982 0 3123)
(13454 112.71 0 3.3148 0 3105.6)
(13382 109.23 0 2.9768 0 3088.8)
(13311 106.13 0 2.5981 0 3072.4)
(13242 103.41 0 2.2032 0 3056.4)
(13175 101.1 0 1.8367 0 3040.9)
(13110 99.197 0 1.5105 0 3025.6)
(13045 97.658 0 1.1993 0 3010.7)
(12981 96.417 0 0.9186 0 2995.9)
(12918 95.431 0 0.70256 0 2981.2)
(12855 94.664 0 0.5162 0 2966.6)
(12792 94.06 0 0.37902 0 2952.1)
(12730 93.574 0 0.35656 0 2937.7)
(12668 93.169 0 0.34584 0 2923.4)
(12607 92.803 0 0.29768 0 2909.3)
(12545 92.417 0 0.3365 0 2895.1)
(12484 92.016 0 0.40153 0 2881)
(12424 91.596 0 0.41389 0 2867.1)
(12363 91.1 0 0.50739 0 2853.2)
(12303 90.501 0 0.65216 0 2839.3)
(12245 89.736 0 0.73345 0 2825.9)
(12186 88.795 0 0.82379 0 2812.4)
(12128 87.745 0 0.87187 0 2799)
(12071 86.747 0 0.79577 0 2785.9)
(12014 85.872 0 0.72204 0 2772.7)
(11958 85.045 0 0.70335 0 2759.7)
(11902 84.236 0 0.69458 0 2746.8)
(11847 83.427 0 0.69571 0 2734)
(11792 82.594 0 0.71767 0 2721.4)
(11738 81.713 0 0.76965 0 2708.9)
(11684 80.75 0 0.85494 0 2696.6)
(11631 79.671 0 0.97299 0 2684.4)
(11579 78.443 0 1.1225 0 2672.4)
(11528 77.033 0 1.3015 0 2660.6)
(11477 75.411 0 1.507 0 2649)
(11428 73.551 0 1.7338 0 2637.7)
(11380 71.435 0 1.9747 0 2626.7)
(11334 69.052 0 2.2208 0 2616)
(11289 66.402 0 2.4623 0 2605.7)
(11246 63.496 0 2.6892 0 2595.8)
(11204 60.354 0 2.8925 0 2586.3)
(11165 57.003 0 3.0652 0 2577.3)
(11128 53.477 0 3.2029 0 2568.8)
(11093 49.814 0 3.3049 0 2560.8)
(11061 46.05 0 3.374 0 2553.3)
(11031 42.214 0 3.4167 0 2546.4)
(11004 38.329 0 3.4422 0 2540.1)
(10979 34.408 0 3.4616 0 2534.3)
(10956 30.451 0 3.4869 0 2529.1)
(10936 26.444 0 3.5292 0 2524.5)
(10919 22.367 0 3.5978 0 2520.5)
(10904 18.19 0 3.6986 0 2517.2)
(10892 13.877 0 3.8334 0 2514.4)
(10883 9.3957 0 3.9994 0 2512.4)
(10877 4.7178 0 4.1897 0 2511)
(10874 -0.17602 0 4.3937 0 2510.3)
(10874 -5.2928 0 4.5986 0 2510.4)
(10877 -10.626 0 4.7911 0 2511.3)
(10884 -16.156 0 4.9591 0 2512.9)
(10895 -21.852 0 5.0928 0 2515.4)
(10909 -27.673 0 5.1859 0 2518.7)
(10927 -33.574 0 5.2359 0 2522.9)
(10949 -39.51 0 5.2433 0 2527.9)
(10975 -45.435 0 5.2105 0 2533.8)
(11004 -51.305 0 5.1409 0 2540.6)
(11037 -57.081 0 5.0369 0 2548.2)
(11074 -62.723 0 4.8991 0 2556.7)
(11115 -68.191 0 4.7254 0 2566)
(11158 -73.441 0 4.5114 0 2576)
(11206 -78.422 0 4.2503 0 2586.9)
(11256 -83.078 0 3.9341 0 2598.4)
(11309 -87.342 0 3.5548 0 2610.6)
(11365 -91.14 0 3.105 0 2623.4)
(11423 -94.392 0 2.5786 0 2636.6)
(11483 -97.011 0 1.9717 0 2650.4)
(11544 -98.909 0 1.2823 0 2664.4)
(11607 -99.998 0 0.51105 0 2678.7)
(11670 -100.19 0 -0.3383 0 2693.1)
(11733 -99.409 0 -1.2584 0 2707.4)
(11796 -97.586 0 -2.2369 0 2721.6)
(11857 -94.673 0 -3.2555 0 2735.4)
(11916 -90.645 0 -4.2882 0 2748.8)
(11972 -85.513 0 -5.3002 0 2761.6)
(12025 -79.327 0 -6.247 0 2773.7)
(12075 -72.195 0 -7.0751 0 2784.8)
(12119 -64.283 0 -7.7232 0 2795)
(12159 -55.824 0 -8.1258 0 2804.1)
(12194 -47.118 0 -8.2187 0 2812.1)
(12224 -38.527 0 -7.9463 0 2819)
(12248 -30.461 0 -7.2699 0 2824.9)
(12269 -23.351 0 -6.1763 0 2829.8)
(12285 -17.626 0 -4.6854 0 2834)
(12299 -13.669 0 -2.8549 0 2837.5)
(12311 -11.78 0 -0.78068 0 2840.8)
(12322 -12.142 0 1.4072 0 2843.9)
(12335 -14.786 0 3.5544 0 2847.3)
(12349 -19.578 0 5.4965 0 2851.1)
(12367 -26.217 0 7.0768 0 2855.6)
(12389 -34.253 0 8.1641 0 2861)
(12417 -43.12 0 8.669 0 2867.4)
(12449 -52.19 0 8.5556 0 2874.9)
(12487 -60.824 0 7.8458 0 2883.4)
(12530 -68.438 0 6.6166 0 2893)
(12576 -74.546 0 4.9891 0 2903.4)
(12626 -78.803 0 3.1124 0 2914.4)
(12677 -81.024 0 1.1445 0 2925.8)
(12729 -81.18 0 -0.76629 0 2937.4)
(12781 -79.387 0 -2.4974 0 2948.8)
(12831 -75.869 0 -3.9626 0 2960)
(12878 -70.921 0 -5.117 0 2970.6)
(12921 -64.87 0 -5.9545 0 2980.5)
(12961 -58.033 0 -6.5017 0 2989.5)
(12996 -50.693 0 -6.8072 0 2997.5)
(13027 -43.081 0 -6.9299 0 3004.6)
(13052 -35.367 0 -6.9284 0 3010.5)
(13073 -27.669 0 -6.8519 0 3015.3)
(13089 -20.061 0 -6.7345 0 3019.1)
(13101 -12.591 0 -6.5932 0 3021.7)
(13107 -5.2956 0 -6.428 0 3023.3)
(13110 1.7798 0 -6.2253 0 3023.8)
(13107 8.5733 0 -5.9617 0 3023.4)
(13101 14.997 0 -5.6086 0 3022)
(13091 20.932 0 -5.1364 0 3019.8)
(13077 26.232 0 -4.5175 0 3016.7)
(13060 30.725 0 -3.7291 0 3013)
(13041 34.217 0 -2.7544 0 3008.8)
(13020 36.504 0 -1.5845 0 3004.3)
(12998 37.378 0 -0.21866 0 2999.5)
(12976 36.633 0 1.3336 0 2994.9)
(12956 34.086 0 3.0518 0 2990.5)
(12937 29.581 0 4.903 0 2986.6)
(12922 23.004 0 6.8423 0 2983.6)
(12912 14.297 0 8.8131 0 2981.6)
(12907 3.4684 0 10.75 0 2981.1)
(12910 -9.402 0 12.582 0 2982.2)
(12922 -24.158 0 14.24 0 2985.3)
(12943 -40.571 0 15.657 0 2990.5)
(12975 -58.345 0 16.777 0 2998)
(13018 -77.129 0 17.555 0 3008.1)
(13072 -96.528 0 17.957 0 3020.8)
(13138 -116.11 0 17.96 0 3036.1)
(13217 -135.43 0 17.547 0 3054)
(13306 -154.01 0 16.702 0 3074.5)
(13407 -171.35 0 15.407 0 3097.4)
(13517 -186.95 0 13.642 0 3122.5)
(13636 -200.28 0 11.39 0 3149.4)
(13762 -210.78 0 8.6406 0 3177.8)
(13893 -217.93 0 5.3987 0 3207.3)
(14027 -221.21 0 1.696 0 3237.3)
(14160 -220.14 0 -2.4029 0 3267.2)
(14291 -214.38 0 -6.7989 0 3296.5)
(14417 -203.66 0 -11.361 0 3324.3)
(14533 -187.91 0 -15.935 0 3350.2)
(14638 -167.18 0 -20.358 0 3373.3)
(14727 -141.74 0 -24.473 0 3393)
(14799 -111.98 0 -28.149 0 3408.7)
(14850 -78.409 0 -31.288 0 3419.8)
(14879 -41.638 0 -33.838 0 3425.8)
(14883 -2.2939 0 -35.796 0 3426.3)
(14861 39.011 0 -37.202 0 3421)
(14813 81.727 0 -38.136 0 3409.5)
(14736 125.4 0 -38.708 0 3391.7)
(14631 169.71 0 -39.044 0 3367.3)
(14497 214.46 0 -39.283 0 3336.3)
(14333 259.61 0 -39.56 0 3298.6)
(14141 305.25 0 -40.004 0 3254)
(13918 351.59 0 -40.722 0 3202.4)
(13665 398.97 0 -41.793 0 3143.7)
(13380 447.8 0 -43.277 0 3077.7)
(13063 498.63 0 -45.297 0 3004.2)
(12714 552.19 0 -48.007 0 2922.9)
(12329 609.15 0 -51.415 0 2833.4)
(11909 670.07 0 -55.379 0 2735.5)
(11449 735.22 0 -59.849 0 2628.3)
(10947 804.9 0 -65.233 0 2511.2)
(10399 879.96 0 -72.291 0 2383)
(9803 962.6 0 -81.726 0 2243.4)
(9155.7 1055.6 0 -93.307 0 2091.3)
(8465.7 1162.3 0 -105.17 0 1929.4)
(7732.9 1283.3 0 -112.07 0 1758.7)
(6985.7 1421.2 0 -102.79 0 1588.4)
(6257.6 1574.8 0 -55.547 0 1431.2)
(5594.9 1729.2 0 54.88 0 1303.8)
(4904.4 1806.9 0 213.91 0 1181.1)
(3854.6 1617.9 0 316.14 0 962.49)
(2126.9 802.73 0 223.19 0 542.33)
(254.29 73.38 0 28.184 0 65.186)
(6.4697 1.2761 0 0.39667 0 1.5845)
(0.20128 0.031508 0 0.0063569 0 0.047917)
(0.011035 0.0015081 0 0.00028008 0 0.0026111)
(0.0012567 0.00013676 0 1.031e-05 0 0.0002924)
(0.00038002 4.2878e-05 0 5.1754e-06 0 8.8892e-05)
(0.00020509 1.4566e-05 0 -1.5403e-06 0 4.6973e-05)
(0.0001722 1.3148e-05 0 2.1368e-06 0 4.0232e-05)
(0.00016382 1.023e-05 0 7.3484e-06 0 3.9501e-05)
(0.00016334 9.1302e-06 0 1.5376e-05 0 4.1243e-05)
(0.00015436 3.887e-06 0 1.9123e-05 0 4.0034e-05)
(0.0001732 -1.3656e-05 0 2.5213e-05 0 4.5787e-05)
(0.0002517 -6.9679e-05 0 2.9327e-05 0 6.4852e-05)
(0.00036677 -0.00012797 0 -3.0688e-06 0 8.3931e-05)
(0.00048786 -0.00011357 0 -7.761e-05 0 9.4673e-05)
(0.00047776 -2.0594e-06 0 -0.00012461 0 8.1497e-05)
(0.00037738 8.6287e-05 0 -9.5961e-05 0 6.4944e-05)
(0.00029681 8.1065e-05 0 -2.0763e-05 0 6.3703e-05)
(0.0002832 6.5499e-05 0 2.4342e-05 0 7.0971e-05)
(0.00023481 5.1329e-05 0 3.1595e-05 0 6.1478e-05)
(0.00024016 4.3747e-05 0 2.6825e-05 0 6.1612e-05)
(0.0002361 3.3503e-05 0 1.5916e-05 0 5.8157e-05)
(0.00025023 3.1228e-05 0 5.3044e-06 0 5.8971e-05)
(0.00022125 2.7191e-05 0 -5.6865e-07 0 5.0927e-05)
(0.00020044 2.3761e-05 0 4.8387e-07 0 4.6368e-05)
(0.00018578 2.106e-05 0 2.0006e-06 0 4.3333e-05)
(0.00017457 1.8716e-05 0 2.603e-06 0 4.0886e-05)
(0.00016484 1.6472e-05 0 2.5313e-06 0 3.8624e-05)
(0.00015651 1.4391e-05 0 2.1558e-06 0 3.6614e-05)
(0.00014913 1.2549e-05 0 1.7202e-06 0 3.4812e-05)
(0.00014269 1.0978e-05 0 1.4004e-06 0 3.3251e-05)
(0.00013643 9.644e-06 0 1.2454e-06 0 3.1772e-05)
(0.00013085 8.5256e-06 0 1.1722e-06 0 3.0467e-05)
(0.000126 7.5267e-06 0 1.1196e-06 0 2.9336e-05)
(0.00012169 6.5744e-06 0 1.0881e-06 0 2.8334e-05)
(0.00011788 5.6171e-06 0 1.0825e-06 0 2.7453e-05)
(0.00011485 4.6413e-06 0 1.0956e-06 0 2.6756e-05)
(0.00011226 3.6167e-06 0 1.1365e-06 0 2.6168e-05)
(0.00011032 2.525e-06 0 1.2098e-06 0 2.5737e-05)
(0.00010875 1.3614e-06 0 1.3079e-06 0 2.5398e-05)
(0.00010785 1.7361e-07 0 1.4154e-06 0 2.5214e-05)
(0.00010709 -9.3692e-07 0 1.4327e-06 0 2.5044e-05)
(0.00010651 -1.7079e-06 0 1.1499e-06 0 2.4845e-05)
(0.00010516 -1.8211e-06 0 3.7783e-07 0 2.4354e-05)
(0.0001025 -1.3448e-06 0 -1.132e-06 0 2.3392e-05)
(0.0001046 -1.6855e-06 0 -3.4398e-06 0 2.3345e-05)
(0.00010658 -5.0373e-07 0 -5.9432e-06 0 2.3223e-05)
(0.00010663 5.0379e-06 0 -3.8053e-06 0 2.373e-05)
(8.8618e-05 8.0363e-06 0 1.4994e-06 0 2.0796e-05)
(9.3083e-05 9.0317e-06 0 2.8899e-06 0 2.2148e-05)
(0.00010136 7.2697e-06 0 2.314e-06 0 2.3925e-05)
(0.00010393 5.0379e-06 0 1.2958e-06 0 2.4282e-05)
(0.00010276 3.6109e-06 0 7.1313e-07 0 2.3879e-05)
(0.00010143 2.726e-06 0 4.6055e-07 0 2.3512e-05)
(9.988e-05 2.1802e-06 0 3.4588e-07 0 2.3129e-05)
(9.861e-05 1.8013e-06 0 2.9055e-07 0 2.2823e-05)
(9.7596e-05 1.515e-06 0 2.3596e-07 0 2.2577e-05)
(9.6737e-05 1.2959e-06 0 1.7875e-07 0 2.2365e-05)
(9.5976e-05 1.1324e-06 0 1.2843e-07 0 2.2178e-05)
(9.5283e-05 1.0148e-06 0 8.889e-08 0 2.2009e-05)
(9.4642e-05 9.3417e-07 0 5.8637e-08 0 2.1854e-05)
(9.4037e-05 8.8338e-07 0 3.4736e-08 0 2.1709e-05)
(9.3451e-05 8.5722e-07 0 1.4985e-08 0 2.1569e-05)
(9.2871e-05 8.5196e-07 0 -1.9675e-09 0 2.1431e-05)
(9.2285e-05 8.6491e-07 0 -1.6945e-08 0 2.1293e-05)
(9.1681e-05 8.941e-07 0 -3.0455e-08 0 2.115e-05)
(9.105e-05 9.3798e-07 0 -4.2785e-08 0 2.1002e-05)
(9.0383e-05 9.9523e-07 0 -5.4062e-08 0 2.0845e-05)
(8.9672e-05 1.0646e-06 0 -6.4305e-08 0 2.0679e-05)
(8.8909e-05 1.145e-06 0 -7.3481e-08 0 2.05e-05)
(8.8088e-05 1.2351e-06 0 -8.1543e-08 0 2.0309e-05)
(8.7203e-05 1.3336e-06 0 -8.8462e-08 0 2.0103e-05)
(8.6249e-05 1.4393e-06 0 -9.4235e-08 0 1.9882e-05)
(8.5221e-05 1.5508e-06 0 -9.8888e-08 0 1.9644e-05)
(8.4118e-05 1.6671e-06 0 -1.0246e-07 0 1.9388e-05)
(8.2935e-05 1.7868e-06 0 -1.0502e-07 0 1.9115e-05)
(8.1672e-05 1.9089e-06 0 -1.0661e-07 0 1.8823e-05)
(8.0326e-05 2.0323e-06 0 -1.073e-07 0 1.8512e-05)
(7.8898e-05 2.1559e-06 0 -1.0713e-07 0 1.8183e-05)
(7.7388e-05 2.2789e-06 0 -1.0614e-07 0 1.7834e-05)
(7.5796e-05 2.4003e-06 0 -1.0437e-07 0 1.7467e-05)
(7.4123e-05 2.5193e-06 0 -1.0187e-07 0 1.7082e-05)
(7.2373e-05 2.635e-06 0 -9.8662e-08 0 1.6679e-05)
(7.0546e-05 2.7466e-06 0 -9.4797e-08 0 1.6258e-05)
(6.8647e-05 2.8534e-06 0 -9.0311e-08 0 1.5821e-05)
(6.6678e-05 2.9547e-06 0 -8.5244e-08 0 1.5367e-05)
(6.4643e-05 3.0498e-06 0 -7.9638e-08 0 1.4899e-05)
(6.2547e-05 3.1382e-06 0 -7.3533e-08 0 1.4417e-05)
(6.0395e-05 3.2193e-06 0 -6.6968e-08 0 1.3922e-05)
(5.8191e-05 3.2925e-06 0 -5.998e-08 0 1.3415e-05)
(5.5941e-05 3.3575e-06 0 -5.2605e-08 0 1.2897e-05)
(5.3651e-05 3.4137e-06 0 -4.4877e-08 0 1.2371e-05)