/*--------------------------------*- C++ -*----------------------------------*\
| =========                 |                                                 |
| \\      /  F ield         | OpenFOAM: The Open Source CFD Toolbox           |
|  \\    /   O peration     | Version:  5.x                                   |
|   \\  /    A nd           | Web:      www.OpenFOAM.org                      |
|    \\/     M anipulation  |                                                 |
\*---------------------------------------------------------------------------*/
FoamFile
{
    version     2.0;
    format      ascii;
    class       volScalarField;
    location    "130";
    object      gamma;
}
// * * * * * * * * * * * * * * * * * * * * * * * * * * * * * * * * * * * * * //

dimensions      [0 0 0 0 0 0 0];

internalField   nonuniform List<scalar> 
86400
(
1.482e-06
1.95e-06
3.104e-06
6.413e-06
1.413e-05
2.393e-05
2.76e-05
3.268e-05
4.018e-05
4.091e-05
4.019e-05
2.909e-05
1.949e-05
1.126e-05
1.928e-05
5.097e-05
0.0002641
0.0005805
0.001052
0.0008978
0.001028
0.001313
0.002222
0.002265
0.002421
0.003556
0.004337
0.005339
0.005672
0.005945
0.005647
0.00576
0.005767
0.005674
0.005765
0.0066
0.006529
0.006067
0.004803
0.004368
0.003926
0.00414
0.003789
0.003146
0.003034
0.003415
0.004425
0.005209
0.00579
0.005482
0.005561
0.005825
0.006082
0.006189
0.006224
0.00677
0.007602
0.008164
0.008372
0.008193
0.007265
0.007186
0.006678
0.006759
0.007821
0.009562
0.01117
0.01184
0.009907
0.008879
0.009693
0.01151
0.01418
0.01297
0.01137
0.009383
0.007457
0.007064
0.008016
0.00907
0.01152
0.01287
0.01237
0.01147
0.0111
0.01014
0.01051
0.0105
0.01125
0.01198
0.01138
0.01264
0.01437
0.01852
0.02061
0.02198
0.01959
0.01913
0.01907
0.01852
0.01754
0.01814
0.01634
0.01384
0.009243
0.008503
0.009308
0.01392
0.01583
0.01649
0.01342
0.012
0.01027
0.00803
0.005442
0.004106
0.003615
0.003493
0.003253
0.003053
0.003045
0.003067
0.003388
0.003516
0.00338
0.003226
0.003036
0.002885
0.002633
0.002223
0.001608
0.001325
0.001184
0.001121
0.001088
0.001157
0.001306
0.001533
0.0008352
0.0002537
8.471e-05
7.278e-05
9.593e-05
0.0001181
7.99e-05
2.775e-05
9.833e-06
5.591e-06
7.308e-06
1.169e-05
3.551e-05
0.0001003
0.0003032
0.0004646
0.0007256
0.001156
0.001494
0.001966
0.06278
0.9722
1.939e-06
2.287e-06
3.418e-06
5.832e-06
1.117e-05
1.681e-05
1.81e-05
2.011e-05
2.173e-05
1.58e-05
1.436e-05
1.299e-05
1.319e-05
1.609e-05
3.384e-05
8.053e-05
0.0002562
0.000595
0.001201
0.001567
0.002398
0.004013
0.006591
0.007285
0.007417
0.007615
0.006609
0.005587
0.004717
0.004071
0.003721
0.004337
0.005225
0.006265
0.007382
0.008849
0.009214
0.009448
0.008633
0.008184
0.007191
0.007021
0.006541
0.005837
0.005656
0.00635
0.007358
0.008456
0.009561
0.009894
0.01081
0.01211
0.0134
0.01436
0.0144
0.01289
0.01108
0.009648
0.008589
0.008211
0.0079
0.00813
0.007535
0.007727
0.009047
0.01246
0.01496
0.01629
0.01437
0.01373
0.01521
0.01584
0.01451
0.01111
0.008713
0.008065
0.009653
0.01241
0.01491
0.01596
0.0182
0.01977
0.02163
0.02242
0.02302
0.02192
0.02296
0.02327
0.02629
0.03021
0.03183
0.03539
0.03702
0.03667
0.03409
0.03162
0.0276
0.02386
0.0196
0.01782
0.01767
0.02114
0.02574
0.02294
0.0134
0.01028
0.01013
0.01264
0.01665
0.01878
0.01503
0.01422
0.01463
0.01465
0.01308
0.01119
0.009851
0.009426
0.008818
0.00815
0.007757
0.007088
0.006883
0.006677
0.006369
0.006524
0.006517
0.006481
0.005786
0.004687
0.003232
0.002653
0.002368
0.002663
0.002977
0.002969
0.00283
0.002582
0.00142
0.0005414
0.000305
0.0002304
0.0001968
0.0001688
0.000119
5.835e-05
3.971e-05
4.559e-05
9.376e-05
0.0001616
0.0002832
0.0005589
0.00118
0.002037
0.004927
0.015
0.04264
0.2155
0.7471
0.983
3.209e-06
3.597e-06
4.586e-06
6.107e-06
1.004e-05
1.305e-05
1.296e-05
1.38e-05
1.315e-05
9.822e-06
9.905e-06
1.262e-05
1.71e-05
2.928e-05
6.37e-05
0.0001837
0.0005148
0.001349
0.002315
0.003433
0.004347
0.007231
0.01046
0.01128
0.01243
0.0147
0.01387
0.01173
0.009454
0.007154
0.006587
0.008546
0.01047
0.01153
0.0113
0.01101
0.01021
0.01043
0.009711
0.008728
0.007032
0.006594
0.00616
0.006501
0.007654
0.009878
0.01188
0.01424
0.01701
0.01568
0.01316
0.01071
0.00899
0.008344
0.009051
0.008387
0.007664
0.006905
0.00657
0.006605
0.007086
0.007853
0.007899
0.009245
0.01022
0.01167
0.01283
0.01357
0.01249
0.01236
0.01301
0.01128
0.00923
0.008214
0.008449
0.01226
0.01978
0.0274
0.03082
0.03225
0.03416
0.0364
0.04016
0.04312
0.04744
0.0465
0.04587
0.0431
0.03425
0.02487
0.01667
0.01189
0.0112
0.014
0.01684
0.01957
0.02092
0.01681
0.01331
0.01243
0.01276
0.01533
0.01934
0.01629
0.009995
0.00868
0.01041
0.01495
0.02307
0.02481
0.02127
0.0236
0.02712
0.02855
0.02505
0.02122
0.017
0.01517
0.01334
0.01209
0.01053
0.009889
0.009284
0.0086
0.007835
0.007794
0.007531
0.00744
0.006649
0.005539
0.004109
0.003472
0.003081
0.003591
0.004255
0.004074
0.00361
0.002925
0.00174
0.0008722
0.000634
0.0005212
0.0005082
0.0004777
0.0004007
0.00027
0.0002024
0.0002545
0.0005044
0.0009507
0.001645
0.002703
0.005203
0.01071
0.03202
0.1304
0.4158
0.8578
0.9725
0.9981
5.902e-06
6.014e-06
6.395e-06
6.726e-06
8.694e-06
8.846e-06
7.594e-06
7.554e-06
7.541e-06
7.066e-06
9.391e-06
9.487e-06
1.017e-05
2.052e-05
5.88e-05
0.0001525
0.0004397
0.0007997
0.0006311
0.0006478
0.0007015
0.000902
0.001523
0.002155
0.00301
0.004897
0.006551
0.006923
0.006854
0.006126
0.006005
0.009042
0.01279
0.01545
0.01464
0.01304
0.01141
0.01207
0.01188
0.01096
0.009201
0.009446
0.01084
0.01441
0.01585
0.01553
0.01235
0.01046
0.0103
0.009083
0.006762
0.005344
0.004948
0.004679
0.005288
0.004636
0.003721
0.003347
0.003965
0.005087
0.006518
0.008191
0.009258
0.01084
0.01133
0.01154
0.01095
0.01037
0.009224
0.01136
0.01455
0.01322
0.01225
0.01273
0.0124
0.01976
0.03133
0.03778
0.03451
0.03575
0.03044
0.02548
0.0218
0.0177
0.01511
0.01448
0.01359
0.01263
0.01087
0.009649
0.008331
0.00701
0.007659
0.009812
0.01195
0.01385
0.01604
0.01221
0.009551
0.008957
0.009746
0.01246
0.01766
0.01639
0.01035
0.007157
0.006764
0.00912
0.01284
0.01426
0.01263
0.01308
0.01274
0.01689
0.01922
0.0227
0.02298
0.02538
0.02237
0.02095
0.01724
0.01639
0.01455
0.01307
0.01177
0.01173
0.01177
0.01209
0.01156
0.01029
0.008096
0.007188
0.006816
0.007215
0.007162
0.005432
0.003715
0.002185
0.001676
0.001253
0.001229
0.001104
0.001118
0.001062
0.001066
0.001064
0.001222
0.002396
0.005697
0.009537
0.01406
0.02029
0.03407
0.08451
0.2304
0.6679
0.8946
0.99
0.9994
1
1.316e-05
1.123e-05
1.003e-05
9.024e-06
8.565e-06
7.437e-06
5.327e-06
5.056e-06
5.861e-06
6.508e-06
1.037e-05
7.782e-06
3.938e-06
6.609e-06
2.64e-05
0.0001078
0.0006382
0.0006587
0.0002522
0.0001418
0.0001572
0.0002026
0.0003821
0.0004275
0.0006517
0.001603
0.004553
0.00991
0.01573
0.01169
0.007354
0.007067
0.006664
0.006385
0.006119
0.005371
0.004279
0.005438
0.007855
0.0105
0.008712
0.005961
0.00358
0.00304
0.002481
0.002172
0.001935
0.002319
0.003611
0.004913
0.004311
0.003058
0.003388
0.003901
0.004769
0.003976
0.002822
0.002722
0.003727
0.006042
0.009582
0.01413
0.01868
0.02181
0.01901
0.0133
0.01019
0.007819
0.005768
0.005815
0.007229
0.006622
0.008345
0.01204
0.0136
0.01539
0.01747
0.0143
0.01084
0.0113
0.008676
0.006168
0.004989
0.00434
0.004365
0.005675
0.006509
0.006126
0.005481
0.005174
0.00421
0.003966
0.005054
0.006836
0.01027
0.01219
0.01388
0.01051
0.00885
0.007007
0.004628
0.003612
0.004759
0.005957
0.006902
0.008111
0.008717
0.01063
0.01239
0.01207
0.009119
0.008108
0.006917
0.01047
0.01106
0.01211
0.01083
0.01122
0.008583
0.009047
0.008167
0.008262
0.007577
0.006753
0.00607
0.005813
0.005664
0.006229
0.006901
0.007344
0.007205
0.00689
0.006337
0.005697
0.004888
0.003286
0.002114
0.001473
0.001285
0.001116
0.001301
0.001476
0.001971
0.002705
0.00364
0.004304
0.004922
0.006842
0.01357
0.02317
0.04222
0.09277
0.22
0.5201
0.8157
0.9536
0.9927
0.9996
1
1
2.116e-05
1.621e-05
1.369e-05
1.183e-05
8.771e-06
6.478e-06
4.958e-06
4.854e-06
6.966e-06
1.062e-05
2.169e-05
1.137e-05
3.568e-06
3.179e-06
2.01e-05
7.533e-05
0.0004645
0.0003702
0.0001276
6.103e-05
0.0001017
0.0001464
0.0002763
0.0001751
0.0001653
0.0002641
0.0005996
0.001911
0.004995
0.004408
0.002522
0.001858
0.001539
0.001491
0.001972
0.002062
0.001327
0.001289
0.001651
0.001483
0.0007384
0.000385
0.0001327
6.625e-05
4.316e-05
2.38e-05
1.175e-05
1.513e-05
3.609e-05
8.808e-05
0.0001329
0.0001871
0.000346
0.0008955
0.001608
0.001376
0.0007438
0.0006197
0.0009163
0.002221
0.004835
0.008213
0.009663
0.01131
0.01036
0.007258
0.007623
0.006535
0.004628
0.004187
0.005438
0.004979
0.006824
0.008724
0.006991
0.004696
0.0031
0.002356
0.002502
0.004053
0.004886
0.004604
0.003622
0.003335
0.003662
0.005437
0.00751
0.00786
0.008433
0.00923
0.01029
0.008878
0.009309
0.009398
0.009458
0.01
0.01008
0.009034
0.01034
0.009792
0.006686
0.004448
0.004334
0.00499
0.006951
0.008315
0.006312
0.006726
0.006985
0.006388
0.003613
0.002352
0.001537
0.002483
0.003396
0.00473
0.004731
0.004456
0.003506
0.003753
0.003351
0.003297
0.003034
0.002712
0.002493
0.002407
0.002352
0.002731
0.003283
0.003876
0.004185
0.004387
0.004369
0.003915
0.003701
0.002727
0.002422
0.002215
0.002382
0.002288
0.002852
0.00345
0.004446
0.00603
0.00849
0.01128
0.01604
0.02581
0.05333
0.1109
0.2722
0.5142
0.8025
0.9299
0.9889
0.9986
0.9999
1
1
1
2.761e-05
1.799e-05
1.336e-05
9.869e-06
8.218e-06
7.217e-06
7.334e-06
8.56e-06
1.595e-05
2.554e-05
4.458e-05
2.113e-05
3.516e-06
2.348e-06
1.131e-05
6.292e-05
0.0006969
0.001343
0.0005762
0.0003243
0.000663
0.0007725
0.001105
0.0004549
0.0002455
0.0002619
0.0004742
0.00115
0.003304
0.003289
0.002073
0.001033
0.0007797
0.0008583
0.001308
0.001404
0.0006877
0.0004817
0.0006166
0.0004637
0.000136
3.425e-05
4.568e-06
1.068e-06
5.411e-07
1.605e-07
7.14e-08
1.314e-07
6.829e-07
3.365e-06
9.504e-06
1.106e-05
1.281e-05
2.218e-05
2.464e-05
3.064e-05
4.126e-05
9.047e-05
0.0003024
0.001164
0.002661
0.00515
0.007046
0.01074
0.01115
0.006666
0.00674
0.005418
0.003959
0.002957
0.003628
0.002891
0.004507
0.006148
0.005644
0.003719
0.002394
0.001913
0.002051
0.003655
0.005929
0.008062
0.00901
0.009959
0.01132
0.01267
0.01388
0.01229
0.01456
0.02056
0.02254
0.01932
0.01596
0.013
0.01102
0.009052
0.006485
0.005141
0.005925
0.006101
0.005609
0.003818
0.003711
0.005795
0.01144
0.01449
0.01131
0.01019
0.008645
0.005662
0.002899
0.001352
0.0007784
0.001204
0.00211
0.002765
0.002586
0.002019
0.001513
0.001625
0.00159
0.001659
0.001666
0.00159
0.001473
0.001335
0.001214
0.001334
0.001631
0.002161
0.002653
0.003085
0.003239
0.002793
0.00277
0.003054
0.003789
0.00492
0.007145
0.007949
0.009959
0.01301
0.01852
0.02865
0.05253
0.09357
0.1674
0.2768
0.4732
0.679
0.838
0.9342
0.9883
0.9978
0.9998
1
1
1
1
1
4.482e-05
2.194e-05
1.325e-05
9.193e-06
8.685e-06
8.969e-06
1.379e-05
2.116e-05
2.974e-05
2.441e-05
3.228e-05
1.367e-05
2.422e-06
2.746e-06
1.667e-05
0.0001226
0.001562
0.005134
0.00413
0.004616
0.006806
0.006914
0.00756
0.003216
0.001412
0.0006011
0.0003887
0.0005017
0.001123
0.001436
0.001284
0.001008
0.0008303
0.001102
0.001903
0.002315
0.00116
0.0008186
0.0008616
0.0002761
4e-05
3.892e-06
3.408e-07
6.235e-08
5.451e-08
1.789e-08
8.156e-09
1.122e-08
2.385e-08
1.012e-07
3.491e-07
4.359e-07
6.57e-07
1.386e-06
1.445e-06
1.663e-06
3.599e-06
1.559e-05
9.463e-05
0.0006234
0.001833
0.004023
0.006397
0.01261
0.0132
0.007883
0.006317
0.004519
0.00304
0.002294
0.002356
0.00195
0.002665
0.004183
0.005351
0.005023
0.003547
0.003565
0.004282
0.008358
0.01443
0.0231
0.03628
0.0578
0.08257
0.1012
0.09706
0.06357
0.05198
0.06406
0.07609
0.08559
0.05924
0.04825
0.03719
0.02655
0.01787
0.01544
0.0148
0.01601
0.01922
0.01692
0.01448
0.01268
0.01407
0.01273
0.01
0.009457
0.008677
0.005674
0.002599
0.0007474
0.0004493
0.0007395
0.001653
0.002361
0.0026
0.001607
0.001134
0.00121
0.001268
0.00131
0.001342
0.001359
0.00135
0.001322
0.001303
0.001509
0.00193
0.00266
0.003592
0.004555
0.00504
0.004576
0.004916
0.006325
0.01017
0.01687
0.02974
0.04449
0.07431
0.1175
0.181
0.2415
0.3922
0.5889
0.7565
0.8716
0.9472
0.9816
0.9944
0.9985
0.9998
1
1
1
1
1
1
1
7.468e-05
2.488e-05
1.188e-05
7.437e-06
7.9e-06
1.087e-05
2.935e-05
3.297e-05
2.564e-05
1.457e-05
1.05e-05
6.029e-06
3.33e-06
8.202e-06
5.849e-05
0.0003283
0.001094
0.001984
0.001525
0.001525
0.003271
0.008347
0.01721
0.01767
0.01321
0.00449
0.001455
0.0007653
0.0009174
0.001269
0.001801
0.001619
0.00113
0.001332
0.001807
0.002104
0.001239
0.0009868
0.001264
0.0001765
1.11e-05
4.892e-07
3.178e-08
8.839e-09
3.005e-08
2.286e-08
1.411e-08
1.36e-08
1.362e-08
1.9e-08
6.97e-08
1.293e-07
3.166e-07
4.578e-07
3.051e-07
1.751e-07
3.335e-07
2.183e-06
2.445e-05
0.000323
0.001538
0.003763
0.005456
0.009074
0.008162
0.004629
0.003295
0.002728
0.001691
0.001402
0.00124
0.001041
0.001332
0.002553
0.004427
0.009794
0.01479
0.02653
0.05327
0.1781
0.4839
0.6815
0.7951
0.8756
0.9281
0.9535
0.9545
0.9327
0.8595
0.759
0.6549
0.6296
0.6205
0.6783
0.6738
0.6903
0.6331
0.5085
0.3853
0.2155
0.1599
0.09646
0.06761
0.04086
0.03046
0.02367
0.0235
0.01719
0.01321
0.007364
0.003083
0.001008
0.000836
0.0007245
0.0011
0.001305
0.001466
0.0009914
0.0008427
0.0007874
0.0008272
0.0009251
0.001039
0.001144
0.001223
0.001301
0.00144
0.001837
0.00269
0.004409
0.007936
0.01385
0.0208
0.02776
0.04003
0.06162
0.1076
0.1719
0.2535
0.3867
0.5685
0.7138
0.8229
0.8821
0.9331
0.969
0.9882
0.9958
0.9987
0.9996
0.9999
1
1
1
1
1
1
1
1
1
6.592e-05
2.141e-05
1.211e-05
9.144e-06
1.261e-05
2.049e-05
3.686e-05
2.134e-05
1.143e-05
7.242e-06
4.676e-06
6.239e-06
9.719e-06
3.955e-05
0.0002783
0.0008264
0.0007503
0.0003295
0.0001162
7.374e-05
0.0001877
0.0009557
0.005279
0.01608
0.02086
0.007517
0.001894
0.000845
0.0007661
0.001563
0.003035
0.002723
0.00144
0.001154
0.0009355
0.001274
0.00165
0.002163
0.002226
0.000185
7.262e-06
2.224e-07
1.965e-08
1.101e-08
8.089e-08
1.43e-07
8.253e-08
3.381e-08
7.621e-09
3.727e-09
1.565e-08
6.422e-08
3.847e-07
8.09e-07
2.667e-07
5.915e-08
7.43e-08
5.309e-07
1.414e-05
0.0003511
0.001599
0.003183
0.002504
0.002857
0.002148
0.001644
0.001469
0.001584
0.001411
0.001934
0.002337
0.003009
0.005305
0.01587
0.03481
0.1057
0.3946
0.7665
0.8976
0.9579
0.9735
0.9744
0.9798
0.9927
0.9981
0.9995
0.9997
0.9994
0.9974
0.9926
0.9863
0.9869
0.9907
0.9931
0.9922
0.9925
0.9896
0.9834
0.9739
0.9492
0.8977
0.8337
0.7376
0.5318
0.2373
0.1148
0.0941
0.0524
0.03372
0.01844
0.007363
0.003086
0.002847
0.001754
0.002367
0.003092
0.00459
0.004349
0.004669
0.00403
0.00437
0.005357
0.006669
0.008151
0.009652
0.01153
0.01464
0.02066
0.03289
0.0484
0.07755
0.1253
0.1969
0.2967
0.4848
0.6185
0.7354
0.8034
0.8562
0.9143
0.96
0.9838
0.9933
0.9965
0.9982
0.9992
0.9997
0.9999
1
1
1
1
1
1
1
1
1
1
1
1
3.284e-05
1.205e-05
9.559e-06
1.233e-05
2.647e-05
4.639e-05
3.396e-05
1.182e-05
4.742e-06
3.739e-06
3.832e-06
9.927e-06
3.706e-05
0.0002309
0.0007192
0.001137
0.0003049
2.993e-05
5.204e-06
3.26e-06
1.412e-05
0.0001233
0.001836
0.01013
0.02017
0.009733
0.004554
0.002295
0.001776
0.002935
0.003873
0.001999
0.0005702
0.0002051
0.0001485
0.0002098
0.000526
0.001345
0.001792
0.0002716
1.546e-05
5.705e-07
7.077e-08
5.581e-08
2.853e-07
5.023e-07
3.454e-07
1.061e-07
1.64e-08
6.293e-09
2.361e-08
1.547e-07
1.978e-06
5.455e-06
1.63e-06
2.162e-07
1.889e-07
1.193e-06
3.058e-05
0.0008486
0.003095
0.003352
0.001838
0.001833
0.00188
0.002117
0.002345
0.002672
0.003165
0.005406
0.01038
0.02535
0.07008
0.2114
0.4642
0.7165
0.8928
0.9727
0.9913
0.9974
0.9986
0.9987
0.999
0.9998
1
1
1
1
1
0.9999
0.9998
0.9998
0.9999
0.9999
0.9999
0.9999
0.9998
0.9997
0.9995
0.9983
0.9944
0.9878
0.9778
0.9589
0.9196
0.8429
0.7942
0.6545
0.4653
0.1894
0.1094
0.05497
0.05376
0.0278
0.02263
0.02329
0.03878
0.04127
0.04845
0.03985
0.04047
0.04674
0.05736
0.07457
0.1047
0.1495
0.2281
0.3619
0.5398
0.6361
0.7312
0.806
0.8866
0.9325
0.9673
0.983
0.991
0.994
0.996
0.9977
0.999
0.9996
0.9999
0.9999
1
1
1
1
1
1
1
1
1
1
1
1
1
1
1
1
1.17e-05
6.224e-06
7.535e-06
1.281e-05
2.259e-05
3.946e-05
1.893e-05
8.316e-06
4.707e-06
1.042e-05
1.433e-05
6.722e-05
0.0003051
0.0008874
0.001275
0.0012
0.0001712
1.152e-05
1.496e-06
7.182e-07
3.813e-06
8.696e-05
0.002436
0.01215
0.01986
0.008702
0.005193
0.003307
0.003337
0.005101
0.004917
0.0018
0.0003129
8.965e-05
4.496e-05
6.371e-05
0.0002006
0.00051
0.0006121
0.0001407
1.208e-05
1.168e-06
2.643e-07
2.423e-07
5.201e-07
5.421e-07
3.291e-07
6.908e-08
8.278e-09
3.517e-09
1.334e-08
2.049e-07
7.133e-06
5.18e-05
2.428e-05
2.813e-06
1.302e-06
5.165e-06
7.542e-05
0.001204
0.003107
0.002561
0.001171
0.001081
0.001425
0.00268
0.00528
0.01147
0.02661
0.06105
0.1875
0.4667
0.7228
0.8361
0.9104
0.9622
0.9903
0.9985
0.9997
0.9999
0.9999
0.9999
0.9999
1
1
1
1
1
1
1
1
1
1
1
1
1
1
1
1
1
0.9999
0.9998
0.9996
0.9992
0.9983
0.9957
0.9924
0.9836
0.9717
0.9531
0.9281
0.8967
0.8689
0.7433
0.6011
0.3832
0.3258
0.3296
0.3717
0.3745
0.4558
0.5636
0.6626
0.7427
0.8032
0.8618
0.915
0.9478
0.9731
0.9843
0.9908
0.9938
0.9969
0.9982
0.9992
0.9996
0.9998
0.9999
0.9999
1
1
1
1
1
1
1
1
1
1
1
1
1
1
1
1
1
1
1
1
1
7.828e-06
6.925e-06
9.103e-06
1.601e-05
2.615e-05
3.978e-05
1.647e-05
9.342e-06
1.037e-05
2.072e-05
4.442e-05
0.000229
0.0007207
0.001218
0.001551
0.0009903
0.000211
1.699e-05
2.242e-06
8.097e-07
3.554e-06
6.762e-05
0.001887
0.009306
0.01909
0.01254
0.01166
0.009926
0.0104
0.01187
0.008901
0.003174
0.0007958
0.0002431
9.984e-05
0.0001038
0.0002646
0.0005024
0.0005146
0.0001939
4.209e-05
7.228e-06
2.98e-06
2.152e-06
1.622e-06
1.449e-06
7.013e-07
3.031e-07
7.582e-08
5.868e-08
1.535e-07
1.17e-06
1.477e-05
5.482e-05
3.231e-05
7.914e-06
6.829e-06
2.522e-05
0.0003547
0.002391
0.003469
0.002334
0.001405
0.002106
0.00556
0.0169
0.04794
0.153
0.4584
0.7059
0.848
0.9273
0.9635
0.9784
0.9935
0.9984
0.9997
1
1
1
1
1
1
1
1
1
1
1
1
1
1
1
1
1
1
1
1
1
1
1
1
1
1
1
1
0.9999
0.9998
0.9996
0.9995
0.9995
0.9995
0.9995
0.9993
0.9979
0.994
0.9814
0.966
0.9577
0.9606
0.9653
0.9711
0.978
0.9853
0.9907
0.9938
0.9962
0.9978
0.9987
0.9993
0.9996
0.9998
0.9999
0.9999
1
1
1
1
1
1
1
1
1
1
1
1
1
1
1
1
1
1
1
1
1
1
1
1
1
1
1
1.151e-05
1.324e-05
2.104e-05
2.748e-05
3.903e-05
4.54e-05
2.779e-05
2.227e-05
5.007e-05
6.727e-05
0.0001343
0.0003673
0.0007796
0.000845
0.0009693
0.0008268
0.0005054
6.563e-05
1.136e-05
3.174e-06
9.488e-06
0.0001057
0.001799
0.006138
0.009975
0.008877
0.01191
0.01518
0.01822
0.01922
0.01464
0.007796
0.003488
0.001496
0.0005907
0.0004517
0.0006412
0.0008978
0.0009492
0.0006731
0.0002696
8.963e-05
5.43e-05
3.849e-05
1.722e-05
1.631e-05
1.075e-05
6.469e-06
2.141e-06
1.399e-06
1.375e-06
3.867e-06
1.294e-05
2.584e-05
1.966e-05
1.445e-05
3.449e-05
0.0002446
0.002063
0.006434
0.007063
0.007719
0.0114
0.03218
0.1309
0.4216
0.6388
0.8161
0.9092
0.9551
0.9822
0.9957
0.9985
0.9992
0.9998
1
1
1
1
1
1
1
1
1
1
1
1
1
1
1
1
1
1
1
1
1
1
1
1
1
1
1
1
1
1
1
1
1
1
1
1
1
1
1
0.9999
0.9997
0.9993
0.9989
0.999
0.9992
0.9994
0.9996
0.9997
0.9998
0.9998
0.9999
0.9999
1
1
1
1
1
1
1
1
1
1
1
1
1
1
1
1
1
1
1
1
1
1
1
1
1
1
1
1
1
1
1
1
1
4.295e-05
5.164e-05
8.809e-05
5.1e-05
6.278e-05
4.864e-05
5.501e-05
8.42e-05
0.0002247
0.0001534
0.0002377
0.0001897
0.0003761
0.000301
0.0004297
0.0002809
0.0001097
8.909e-06
1.18e-06
3.406e-07
1.042e-06
1.201e-05
0.0002399
0.0009115
0.00233
0.002913
0.004327
0.007314
0.01082
0.01147
0.009756
0.006924
0.005618
0.004015
0.002349
0.001621
0.001977
0.002374
0.002945
0.00352
0.001631
0.0008186
0.000501
0.0004305
0.0002139
0.0002827
0.0002279
0.0001754
7.773e-05
5.873e-05
3.48e-05
3.274e-05
4.462e-05
6.999e-05
8.689e-05
0.0001073
0.0003318
0.001336
0.005498
0.01231
0.02228
0.04438
0.138
0.5252
0.7981
0.8904
0.9392
0.9804
0.9941
0.998
0.9993
0.9998
0.9999
1
1
1
1
1
1
1
1
1
1
1
1
1
1
1
1
1
1
1
1
1
1
1
1
1
1
1
1
1
1
1
1
1
1
1
1
1
1
1
1
1
1
1
1
1
1
1
1
1
1
1
1
1
1
1
1
1
1
1
1
1
1
1
1
1
1
1
1
1
1
1
1
1
1
1
1
1
1
1
1
1
1
1
1
1
1
1
0.0001262
0.0001696
0.0003561
0.0001586
0.0001083
5.742e-05
8.604e-05
0.0001931
0.0004757
0.0002497
0.0002944
0.000162
0.0001635
0.0001889
0.0001624
3.256e-05
7.974e-06
4.842e-07
5.637e-08
1.872e-08
8.558e-08
2.166e-06
6.986e-05
0.0004648
0.001742
0.001846
0.003568
0.006059
0.009717
0.01011
0.00918
0.007446
0.00775
0.008018
0.006446
0.005587
0.006788
0.007402
0.009106
0.01246
0.006555
0.003596
0.002198
0.002237
0.001204
0.00118
0.0009915
0.0009861
0.000887
0.0009241
0.0006394
0.0004471
0.0004134
0.0003658
0.0004336
0.0007101
0.001702
0.005699
0.02309
0.05497
0.1519
0.485
0.7335
0.8692
0.9396
0.9745
0.9921
0.9986
0.9997
0.9999
1
1
1
1
1
1
1
1
1
1
1
1
1
1
1
1
1
1
1
1
1
1
1
1
1
1
1
1
1
1
1
1
1
1
1
1
1
1
1
1
1
1
1
1
1
1
1
1
1
1
1
1
1
1
1
1
1
1
1
1
1
1
1
1
1
1
1
1
1
1
1
1
1
1
1
1
1
1
1
1
1
1
1
1
1
1
1
1
1
1
0.0003022
0.0005162
0.00127
0.0006497
0.0002773
0.0001433
0.0002786
0.0005256
0.0008687
0.0004582
0.0003332
0.0002312
0.000233
0.0002561
6.844e-05
6.483e-06
8.723e-07
6.123e-08
1.244e-08
7.051e-09
6.68e-08
1.957e-06
5.833e-05
0.0004758
0.002343
0.002211
0.003544
0.005785
0.008273
0.007752
0.007091
0.005567
0.006997
0.008272
0.009805
0.01058
0.01423
0.01395
0.0158
0.01919
0.01193
0.008587
0.006374
0.006129
0.002958
0.002077
0.001163
0.001062
0.001488
0.002492
0.002467
0.001717
0.001591
0.001473
0.002784
0.005419
0.01438
0.03903
0.1458
0.4162
0.6874
0.852
0.9516
0.9867
0.997
0.9994
0.9999
1
1
1
1
1
1
1
1
1
1
1
1
1
1
1
1
1
1
1
1
1
1
1
1
1
1
1
1
1
1
1
1
1
1
1
1
1
1
1
1
1
1
1
1
1
1
1
1
1
1
1
1
1
1
1
1
1
1
1
1
1
1
1
1
1
1
1
1
1
1
1
1
1
1
1
1
1
1
1
1
1
1
1
1
1
1
1
1
1
1
1
1
1
0.0002691
0.0006255
0.001951
0.001001
0.0003704
0.0002968
0.0006452
0.00221
0.002625
0.00134
0.0005797
0.0003332
0.0002448
0.0002526
2.212e-05
1.68e-06
2.998e-07
5.506e-08
2.136e-08
2.221e-08
2.905e-07
7.418e-06
0.0002404
0.001637
0.005535
0.003617
0.004589
0.005604
0.007353
0.007393
0.007309
0.006483
0.009409
0.01139
0.01133
0.01175
0.01323
0.009095
0.006648
0.006794
0.0062
0.007764
0.01122
0.01352
0.007239
0.003456
0.001088
0.0006847
0.00073
0.00129
0.001844
0.002253
0.004144
0.008148
0.01923
0.04723
0.1429
0.3569
0.6645
0.8281
0.9328
0.9766
0.9959
0.9993
0.9999
1
1
1
1
1
1
1
1
1
1
1
1
1
1
1
1
1
1
1
1
1
1
1
1
1
1
1
1
1
1
1
1
1
1
1
1
1
1
1
1
1
1
1
1
1
1
1
1
1
1
1
1
1
1
1
1
1
1
1
1
1
1
1
1
1
1
1
1
1
1
1
1
1
1
1
1
1
1
1
1
1
1
1
1
1
1
1
1
1
1
1
1
1
1
1
0.0004846
0.001082
0.002703
0.001462
0.0003666
0.0003739
0.001126
0.0048
0.005064
0.002111
0.0007613
0.0003764
0.0001583
0.0001355
1.204e-05
1.219e-06
5.732e-07
4.074e-07
3.158e-07
5.649e-07
6.005e-06
8.629e-05
0.001427
0.006675
0.01622
0.009502
0.01005
0.008831
0.008472
0.007197
0.006937
0.007621
0.01296
0.01697
0.01495
0.01369
0.0127
0.007869
0.004887
0.003887
0.003013
0.0038
0.005528
0.007416
0.005508
0.003901
0.001646
0.0009348
0.0007139
0.001116
0.001983
0.004067
0.01192
0.03445
0.0976
0.3081
0.6257
0.7897
0.9033
0.9614
0.9906
0.9981
0.9998
1
1
1
1
1
1
1
1
1
1
1
1
1
1
1
1
1
1
1
1
1
1
1
1
1
1
1
1
1
1
1
1
1
1
1
1
1
1
1
1
1
1
1
1
1
1
1
1
1
1
1
1
1
1
1
1
1
1
1
1
1
1
1
1
1
1
1
1
1
1
1
1
1
1
1
1
1
1
1
1
1
1
1
1
1
1
1
1
1
1
1
1
1
1
1
1
1
0.0008569
0.001745
0.004081
0.002375
0.0005903
0.0006799
0.001527
0.005575
0.005582
0.002294
0.0006321
0.0003667
0.0001988
0.0001464
2.075e-05
4.588e-06
5.241e-06
1.042e-05
1.383e-05
2.632e-05
0.0001492
0.0008177
0.004415
0.0114
0.01905
0.01223
0.01333
0.01108
0.009479
0.006997
0.007897
0.01145
0.02175
0.03155
0.02491
0.01858
0.01155
0.006264
0.003278
0.002232
0.00149
0.001827
0.002512
0.003677
0.004768
0.005463
0.003584
0.00266
0.002089
0.002411
0.003476
0.01204
0.05139
0.1981
0.5869
0.8202
0.9276
0.9706
0.9882
0.9961
0.9993
0.9999
1
1
1
1
1
1
1
1
1
1
1
1
1
1
1
1
1
1
1
1
1
1
0.9999
0.9999
0.9999
0.9998
0.9997
0.9997
0.9997
0.9997
0.9996
0.9996
0.9998
0.9999
1
1
1
1
1
1
1
1
1
1
1
1
1
1
1
1
1
1
1
1
1
1
1
1
1
1
1
1
1
1
1
1
1
1
1
1
1
1
1
1
1
1
1
1
1
1
1
1
1
1
1
1
1
1
1
1
1
1
1
1
1
1
1
1
0.001952
0.003646
0.007071
0.003159
0.0008666
0.0008649
0.00115
0.004143
0.005856
0.00322
0.001216
0.001132
0.0007339
0.0005278
0.0001204
3.759e-05
4.589e-05
0.0001194
0.0002203
0.0006323
0.001886
0.003213
0.004737
0.005085
0.005034
0.005252
0.01059
0.009086
0.007844
0.005186
0.004793
0.005895
0.01226
0.02159
0.02156
0.0181
0.01177
0.007105
0.004654
0.003317
0.00201
0.0018
0.001878
0.002354
0.004068
0.007252
0.008406
0.009439
0.009648
0.01072
0.02226
0.0857
0.4498
0.7637
0.9039
0.9615
0.988
0.9964
0.9991
0.9998
1
1
1
1
1
1
1
1
1
1
1
1
1
1
1
1
1
1
0.9998
0.9997
0.9998
0.9998
0.9996
0.9984
0.9952
0.9928
0.9896
0.9858
0.9783
0.9739
0.9775
0.9789
0.9739
0.9772
0.9886
0.9954
0.9985
0.9993
0.9995
0.9995
0.9998
0.9999
1
1
1
1
1
1
1
1
1
1
1
1
1
1
1
1
1
1
1
1
1
1
1
1
1
1
1
1
1
1
1
1
1
1
1
1
1
1
1
1
1
1
1
1
1
1
1
1
1
1
1
1
1
1
1
1
1
1
0.002981
0.005269
0.009459
0.003877
0.001145
0.0006053
0.0004633
0.001773
0.004398
0.004788
0.002619
0.003838
0.002668
0.001912
0.0007243
0.0003354
0.0004086
0.001086
0.001647
0.003725
0.006518
0.00558
0.003919
0.002693
0.002479
0.003416
0.01092
0.009612
0.008627
0.005884
0.004753
0.004262
0.007262
0.01375
0.01921
0.02231
0.01845
0.01328
0.01015
0.007009
0.003569
0.002505
0.002135
0.002296
0.004033
0.009687
0.01636
0.0285
0.05369
0.09468
0.2546
0.681
0.8882
0.9592
0.9854
0.9945
0.9986
0.9997
1
1
1
1
1
1
1
1
1
1
1
1
1
1
1
1
1
1
0.9999
0.9996
0.9985
0.9971
0.996
0.992
0.9777
0.9281
0.8624
0.8537
0.8271
0.8031
0.7524
0.7164
0.7208
0.7291
0.7268
0.7857
0.8471
0.8876
0.9309
0.9487
0.954
0.9584
0.9795
0.992
0.998
0.9994
0.9997
0.9998
0.9999
1
1
1
1
1
1
1
1
1
1
1
1
1
1
1
1
1
1
1
1
1
1
1
1
1
1
1
1
1
1
1
1
1
1
1
1
1
1
1
1
1
1
1
1
1
1
1
1
1
1
1
1
1
0.003835
0.006308
0.0116
0.003576
0.001102
0.0002837
0.0001634
0.0007205
0.004327
0.009886
0.009655
0.01454
0.009677
0.006809
0.003409
0.002305
0.00178
0.003621
0.004139
0.00767
0.009676
0.006122
0.003645
0.002153
0.003016
0.005427
0.01783
0.01627
0.01327
0.008323
0.005948
0.003782
0.004554
0.007971
0.01455
0.02475
0.03072
0.02337
0.01938
0.01381
0.007662
0.005381
0.00413
0.004144
0.007301
0.01723
0.03564
0.07893
0.2216
0.5374
0.8016
0.9399
0.9823
0.9928
0.9976
0.9991
0.9998
1
1
1
1
1
1
1
1
1
1
1
1
1
1
1
0.9999
0.9997
0.9991
0.9985
0.9962
0.9876
0.9696
0.9363
0.9013
0.836
0.7437
0.6315
0.5686
0.4637
0.3359
0.265
0.2126
0.1882
0.1799
0.165
0.1784
0.2016
0.2275
0.2177
0.3677
0.5376
0.6862
0.7656
0.8526
0.8915
0.9377
0.9704
0.9828
0.9875
0.9959
0.9983
0.9996
0.9999
0.9999
1
1
1
1
1
1
1
1
1
1
1
1
1
1
1
1
1
1
1
1
1
1
1
1
1
1
1
1
1
1
1
1
1
1
1
1
1
1
1
1
1
1
1
1
1
1
0.9999
0.9998
0.9992
0.002983
0.004482
0.009396
0.0039
0.002353
0.000467
0.0002293
0.0005016
0.00302
0.00562
0.008407
0.01327
0.01267
0.009388
0.005449
0.004911
0.003764
0.006141
0.008752
0.01162
0.01073
0.006887
0.004575
0.003081
0.003339
0.004794
0.01295
0.01403
0.01551
0.01271
0.009217
0.004553
0.004019
0.005099
0.01006
0.0204
0.02993
0.02155
0.01834
0.01491
0.01065
0.009123
0.008546
0.01122
0.0213
0.05406
0.1306
0.3858
0.7072
0.8835
0.9631
0.9898
0.9965
0.9983
0.9993
0.9998
1
1
1
1
1
1
1
1
1
1
1
1
1
1
1
0.9998
0.9989
0.9939
0.979
0.9617
0.9211
0.8417
0.7304
0.6135
0.456
0.2581
0.1545
0.1034
0.0611
0.03627
0.02349
0.02173
0.02326
0.02706
0.02424
0.0205
0.02569
0.03478
0.04471
0.04825
0.05952
0.06898
0.09832
0.1363
0.1925
0.2889
0.5233
0.7453
0.8567
0.9031
0.9568
0.9741
0.9857
0.992
0.9954
0.9974
0.9994
0.9999
1
1
1
1
1
1
1
1
1
1
1
1
1
1
1
1
1
1
1
1
1
1
1
1
1
1
1
1
1
1
1
1
1
1
1
1
1
1
1
1
1
0.9998
0.9994
0.9967
0.9871
0.964
0.002434
0.003008
0.00695
0.004338
0.004402
0.0007669
0.0004191
0.0004427
0.001677
0.003064
0.005884
0.008765
0.01162
0.01061
0.005439
0.004574
0.003997
0.007039
0.01431
0.01757
0.01391
0.009543
0.008144
0.006978
0.006949
0.006861
0.01159
0.01229
0.01511
0.01541
0.01186
0.00518
0.004515
0.004659
0.008429
0.01603
0.02468
0.01851
0.01733
0.01518
0.01319
0.01464
0.01793
0.027
0.06113
0.1716
0.4673
0.7721
0.9241
0.9767
0.993
0.9975
0.9989
0.9994
0.9997
0.9999
1
1
1
1
1
1
1
1
1
1
1
0.9999
0.9997
0.9993
0.9983
0.9955
0.9829
0.9322
0.8155
0.7157
0.5635
0.3183
0.1444
0.0767
0.03132
0.01918
0.01413
0.01038
0.006143
0.004513
0.002693
0.002824
0.003967
0.005093
0.004685
0.004265
0.006002
0.009953
0.01531
0.01962
0.02054
0.01926
0.02388
0.0314
0.03917
0.05239
0.07701
0.124
0.2096
0.3876
0.6588
0.8043
0.8614
0.887
0.9223
0.9553
0.9863
0.9981
0.9999
1
1
1
1
1
1
1
1
1
1
1
1
1
1
1
1
1
1
1
1
1
1
1
1
1
1
1
1
1
1
1
1
1
1
1
1
0.9999
0.9997
0.9991
0.9971
0.9888
0.9673
0.9129
0.8358
0.7682
0.002723
0.002432
0.006172
0.004085
0.005116
0.0009847
0.0005776
0.0003493
0.0007966
0.001562
0.003486
0.006191
0.01178
0.0131
0.005502
0.004027
0.004438
0.009333
0.01128
0.008289
0.00455
0.004219
0.008061
0.01594
0.0162
0.009897
0.008966
0.009533
0.01304
0.01473
0.0135
0.008066
0.007572
0.005919
0.006796
0.007702
0.009012
0.007557
0.0109
0.01359
0.01588
0.0224
0.03628
0.07279
0.2417
0.5929
0.8198
0.944
0.9853
0.9957
0.9985
0.9992
0.9997
0.9999
1
1
1
1
1
1
1
1
1
1
1
0.9999
0.9997
0.9987
0.9953
0.9873
0.9645
0.9245
0.8221
0.6269
0.3587
0.1522
0.06455
0.02541
0.01109
0.007154
0.003599
0.002817
0.002304
0.002069
0.001261
0.00138
0.001004
0.001131
0.001404
0.001836
0.00173
0.001602
0.002217
0.004057
0.006334
0.008707
0.009292
0.008223
0.01045
0.01329
0.01664
0.02248
0.02975
0.03973
0.04981
0.0697
0.1003
0.1851
0.3646
0.5711
0.7879
0.9058
0.9588
0.9917
0.9994
0.9999
1
1
1
1
1
1
1
1
1
1
1
1
1
1
1
1
1
1
1
1
1
1
1
1
1
1
1
1
1
1
0.9999
0.9998
0.9996
0.9987
0.9967
0.9899
0.9758
0.9396
0.8699
0.7502
0.658
0.5447
0.4118
0.2057
0.002886
0.0022
0.006736
0.004288
0.004758
0.001049
0.0005683
0.0003568
0.0008845
0.001546
0.002243
0.00363
0.008639
0.01232
0.004728
0.003256
0.003059
0.005957
0.006237
0.005414
0.002287
0.002332
0.005075
0.01776
0.02127
0.01301
0.00996
0.009469
0.01297
0.0143
0.01469
0.01245
0.01363
0.01074
0.008738
0.005983
0.004861
0.004491
0.009071
0.0172
0.03094
0.05425
0.1346
0.3886
0.7497
0.8971
0.9636
0.9889
0.9974
0.9992
0.9998
0.9999
1
1
1
1
1
1
1
1
1
1
1
0.9999
0.9996
0.999
0.9962
0.987
0.9562
0.8965
0.744
0.5408
0.1805
0.0739
0.03367
0.01913
0.009421
0.004617
0.002423
0.00165
0.001096
0.001126
0.001016
0.001279
0.001076
0.001485
0.001244
0.001562
0.001792
0.002311
0.001989
0.00183
0.002688
0.003991
0.00585
0.008424
0.009336
0.008895
0.01044
0.0117
0.01205
0.01291
0.01351
0.01535
0.01657
0.01961
0.02782
0.05305
0.1056
0.269
0.6467
0.8558
0.9478
0.99
0.9993
0.9999
1
1
1
1
1
1
1
1
1
1
1
1
1
1
1
1
1
1
1
1
1
1
1
1
1
0.9999
0.9998
0.9994
0.9985
0.9963
0.9928
0.984
0.962
0.9109
0.8348